          39
          20
 SPIN
 S
           1
           4
           1
           1
  0.50000000000000000     
           7
           1           3           6           9          12          15          17
           1
 -0.50000000000000000     
           7
           2           4           7          10          11          16          20
           1
   1.5000000000000000     
           3
           5          13          18
           1
  -1.5000000000000000     
           3
           8          14          19
           3
 H
 bosonic
          20          20
           7
           1  -16.972228910505276     
           3  0.20555276256635308     
           6   1.3667202411031559E-014
           9 -0.10485961598084162     
          12  -2.7445474441606288E-014
          15   1.3094152041865783E-002
          17  -1.2134015942000683E-013
           7
           2  -16.972228910505283     
           4  0.20555276256637869     
           7  -2.7075751777561346E-015
          10  0.10485961598083363     
          11   3.7968223977434406E-014
          16  -1.3094152041834764E-002
          20  -8.7242474228339309E-014
           7
           1  0.20555276256635699     
           3  -16.622788888754908     
           6  -2.6117736728828815E-014
           9 -0.32636912648319072     
          12  -7.3441443511160687E-014
          15  -5.4520518557713130E-002
          17  -3.3843550543270809E-013
           7
           2  0.20555276256637744     
           4  -16.622788888754915     
           7   2.1637049235272714E-014
          10  0.32636912648317778     
          11   1.6252657413353071E-013
          16   5.4520518557813202E-002
          20  -2.7586711973701132E-013
           3
           5  -16.283118014432286     
          13 -0.35057839574366384     
          18 -0.14711086611185645     
           7
           1   1.5772767796871279E-014
           3  -2.1635360514836182E-014
           6  -16.283118014432272     
           9  -5.2598335853259939E-014
          12  0.35057839574359617     
          15   2.5445979359938210E-014
          17  0.14711086611262253     
           7
           2  -5.9504305760713802E-015
           4   1.9988430416057185E-014
           7  -16.283118014432286     
          10   8.7316118520797682E-014
          11 -0.35057839574361871     
          16   2.3454228849209691E-013
          20 -0.14711086611139967     
           3
           8  -16.283118014432276     
          14  0.35057839574369420     
          19 -0.14711086611184998     
           7
           1 -0.10485961598084240     
           3 -0.32636912648319344     
           6  -5.1711923623828088E-014
           9  -16.448166126427349     
          12   1.1025901673941825E-013
          15  -5.5030037415769006E-002
          17   1.4302068274617990E-012
           7
           2  0.10485961598083253     
           4  0.32636912648317795     
           7   8.7785849566403096E-014
          10  -16.448166126427441     
          11   2.6753325449024315E-013
          16  -5.5030037415553013E-002
          20  -8.4960613747454647E-013
           7
           2   3.9808682001845607E-014
           4   1.6520606492579258E-013
           7 -0.35057839574361982     
          10   2.6809261412576696E-013
          11  -16.013194690701798     
          16  -2.8088774423483961E-013
          20 -0.23397337605375221     
           7
           1  -2.4671233390943425E-014
           3  -7.4632563421791385E-014
           6  0.35057839574359673     
           9   1.0888715947109801E-013
          12  -16.013194690701511     
          15  -1.0723940644634644E-013
          17 -0.23397337604740998     
           3
           5 -0.35057839574366495     
          13  -16.013194690700676     
          18 -0.23397337605119251     
           3
           8  0.35057839574369593     
          14  -16.013194690700793     
          19  0.23397337605142066     
           7
           1   1.3094152041866265E-002
           3  -5.4520518557713837E-002
           6   2.3796584454641877E-014
           9  -5.5030037415767508E-002
          12  -1.1057660038645018E-013
          15  -15.861116307854441     
          17  -2.9191220452705970E-013
           7
           2  -1.3094152041833796E-002
           4   5.4520518557812155E-002
           7   2.3253700260718430E-013
          10  -5.5030037415555066E-002
          11  -2.8058169368745262E-013
          16  -15.861116307854376     
          20   6.0727595077657325E-013
           7
           1  -1.2146767266447976E-013
           3  -3.3811780312288426E-013
           6  0.14711086611261998     
           9   1.4282769738513954E-012
          12 -0.23397337604741078     
          15  -2.9313654858247348E-013
          17  -15.778131323722619     
           3
           5 -0.14711086611185351     
          13 -0.23397337605119306     
          18  -15.778131323718849     
           3
           8 -0.14711086611185195     
          14  0.23397337605142132     
          19  -15.778131323718819     
           7
           2  -8.8162286437505671E-014
           4  -2.7449658720025622E-013
           7 -0.14711086611139973     
          10  -8.4869371579146507E-013
          11 -0.23397337605375640     
          16   6.0889764160072063E-013
          20  -15.778131323716108     
 S_z
 bosonic
          20          20
           7
           1  0.35799337042448165     
           3  0.25303841066635241     
           6 -0.19841283534822921     
           9  -9.9210205758617068E-002
          12  -8.7311518237995919E-002
          15  -2.6313687581668989E-003
          17  -4.7292557914177465E-004
           7
           2 -0.35799337042450108     
           4 -0.25303841066632360     
           7  0.19841283534824117     
          10  -9.9210205758585593E-002
          11  -8.7311518238022329E-002
          16  -2.6313687581444186E-003
          20  -4.7292557853973149E-004
           7
           1  0.25303841066635241     
           3  -2.8791281223743109E-002
           6  0.41179382359430589     
           9  -1.2248213127250277E-002
          12   3.1427875926373222E-002
          15   8.8922812539169421E-002
          17   7.4286124984143748E-002
           7
           2 -0.25303841066632360     
           4   2.8791281223680559E-002
           7 -0.41179382359432987     
          10  -1.2248213127275920E-002
          11   3.1427875926436324E-002
          16   8.8922812539127760E-002
          20   7.4286124984388149E-002
           3
           5  0.49407386831738465     
          13  -1.4226275164160321E-002
          18  -3.5071635330959798E-002
           7
           1 -0.19841283534822921     
           3  0.41179382359430589     
           6  0.16469128943917397     
           9   2.7733787309631554E-003
          12   4.7420917213895335E-003
          15  -8.5176576177277086E-002
          17   1.1690545110363713E-002
           7
           2  0.19841283534824117     
           4 -0.41179382359432987     
           7 -0.16469128943909844     
          10   2.7733787309799141E-003
          11   4.7420917213377078E-003
          16  -8.5176576177264457E-002
          20   1.1690545110370151E-002
           3
           8 -0.49407386831738553     
          14  -1.4226275164153313E-002
          19   3.5071635330967868E-002
           7
           1  -9.9210205758617068E-002
           3  -1.2248213127250277E-002
           6   2.7733787309631554E-003
           9  -6.1656310649664384E-002
          12 -0.38413403453305039     
          15  0.21525378724577265     
          17  0.19721334430320800     
           7
           2  -9.9210205758585593E-002
           4  -1.2248213127275920E-002
           7   2.7733787309799141E-003
          10   6.1656310649648841E-002
          11  0.38413403453296524     
          16 -0.21525378724588937     
          20 -0.19721334430340115     
           7
           2  -8.7311518238022329E-002
           4   3.1427875926436324E-002
           7   4.7420917213377078E-003
          10  0.38413403453296524     
          11 -0.15528279852212978     
          16 -0.18340454071988777     
          20   2.8064329391703360E-002
           7
           1  -8.7311518237995919E-002
           3   3.1427875926373222E-002
           6   4.7420917213895335E-003
           9 -0.38413403453305039     
          12  0.15528279852206278     
          15  0.18340454071982698     
          17  -2.8064329391502871E-002
           3
           5  -1.4226275164160321E-002
          13  0.46584839556634838     
          18  -8.4192988174562278E-002
           3
           8  -1.4226275164153313E-002
          14 -0.46584839556637719     
          19  -8.4192988174552438E-002
           7
           1  -2.6313687581668989E-003
           3   8.8922812539169421E-002
           6  -8.5176576177277086E-002
           9  0.21525378724577265     
          12  0.18340454071982698     
          15  0.37017585283743859     
          17  -1.1578159472765876E-002
           7
           2  -2.6313687581444186E-003
           4   8.8922812539127760E-002
           7  -8.5176576177264457E-002
          10 -0.21525378724588937     
          11 -0.18340454071988777     
          16 -0.37017585283732857     
          20   1.1578159472910380E-002
           7
           1  -4.7292557914177465E-004
           3   7.4286124984143748E-002
           6   1.1690545110363713E-002
           9  0.19721334430320800     
          12  -2.8064329391502871E-002
          15  -1.1578159472765876E-002
          17   9.7480466141603911E-002
           3
           5  -3.5071635330959798E-002
          13  -8.4192988174562278E-002
          18  0.29244139842585948     
           3
           8   3.5071635330967868E-002
          14  -8.4192988174552438E-002
          19 -0.29244139842573202     
           7
           2  -4.7292557853973149E-004
           4   7.4286124984388149E-002
           7   1.1690545110370151E-002
          10 -0.19721334430340115     
          11   2.8064329391703360E-002
          16   1.1578159472910380E-002
          20  -9.7480466141299987E-002
 S_p
 bosonic
          20          20
           7
           2  0.71598674084898128     
           4  0.50607682133267484     
           7  0.19841283534822898     
          10  0.19842041151723583     
          11  -8.7311518237886271E-002
          16   5.2627375164460647E-003
          20  -4.7292557876253493E-004
           3
           8  0.34366111169693492     
          14  0.15122798567417814     
          19  -8.1913113063836109E-004
           7
           2  0.50607682133267007     
           4  -5.7582562447397935E-002
           7 -0.41179382359427652     
          10   2.4496426254496922E-002
          11   3.1427875926325323E-002
          16 -0.17784562507832419     
          20   7.4286124984190488E-002
           3
           8 -0.71324782470840198     
          14  -5.4434677878488345E-002
          19  0.12866734277015512     
           7
           1  0.34366111169695612     
           3 -0.71324782470844283     
           6  0.57050736174516437     
           9  -4.8036328706560719E-003
          12   1.6427087591179054E-002
          15  0.14753015755381196     
          17   4.0497236198255585E-002
           7
           2  0.19841283534826604     
           4 -0.41179382359434835     
           7 -0.65876515775652200     
          10   2.7733787309660446E-003
          11   1.8968366885510742E-002
          16  -8.5176576177276225E-002
          20   4.6762180441409125E-002
           3
           8  0.57050736174523120     
          14   1.6427087591191079E-002
          19  -4.0497236198507584E-002
           0
           7
           2 -0.19842041151725234     
           4  -2.4496426254486003E-002
           7  -2.7733787309780424E-003
          10  0.12331262129964116     
          11 -0.38413403453327155     
          16 -0.43050757449145211     
          20  0.19721334430327392     
           3
           8   4.8036328707040683E-003
          14 -0.66533966472748685     
          19 -0.34158353226396687     
           3
           8  -1.6427087591260485E-002
          14 -0.53791539316357184     
          19  -9.7217688773017882E-002
           7
           2   8.7311518237943309E-002
           4  -3.1427875926423807E-002
           7  -1.8968366885520099E-002
          10 -0.38413403453312983     
          11  0.62113119408848028     
          16  0.18340454071945730     
          20 -0.11225731756639276     
           7
           1 -0.15122798567419451     
           3   5.4434677878484987E-002
           6  -1.6427087591176816E-002
           9 -0.66533966472749262     
          12 -0.53791539316365022     
          15  0.31766598286554609     
          17   9.7217688772307562E-002
           0
           7
           2  -5.2627375163299718E-003
           4  0.17784562507830137     
           7   8.5176576177271479E-002
          10 -0.43050757449155508     
          11  0.18340454071937778     
          16 -0.74035170567503206     
          20  -1.1578159473226709E-002
           3
           8 -0.14753015755378346     
          14  0.31766598286572495     
          19   2.0053960465289112E-002
           7
           2   4.7292557882674431E-004
           4  -7.4286124984223822E-002
           7  -4.6762180441353655E-002
          10  0.19721334430304630     
          11 -0.11225731756612603     
          16  -1.1578159473188413E-002
          20  0.38992186456663130     
           7
           1  -8.1913113064929137E-004
           3  0.12866734277016476     
           6  -4.0497236198503546E-002
           9  0.34158353226397703     
          12   9.7217688773109046E-002
          15  -2.0053960465270245E-002
          17 -0.33768224020798254     
           0
           3
           8  -4.0497236198595042E-002
          14   9.7217688772965119E-002
          19  0.33768224020611226     
          39
 1
 none
           2           2
           1
           1   1.0000000000000000     
           1
           2   1.0000000000000000     
 2
 none
           4           4
           1
           4   1.0000000000000000     
           2
           1 -0.70710678118654746     
           2 -0.70710678118654757     
           2
           1  0.70710678118654757     
           2 -0.70710678118654746     
           1
           3   1.0000000000000000     
 3
 none
           8           8
           3
           2  0.95891527927997711     
           4  0.28369259271860459     
           8  -6.4392935428259079E-015
           3
           1 -0.95891527927997733     
           3 -0.28369259271860425     
           5   4.3298697960381105E-015
           3
           2  0.16378999477318912     
           4 -0.55362999462235774     
           8 -0.81649658092771382     
           3
           1  0.16378999477318912     
           3 -0.55362999462232665     
           5  0.81649658092773525     
           3
           1  0.23163403198926238     
           3 -0.78295104693146622     
           5 -0.57735026918961319     
           1
           6   1.0000000000000000     
           1
           7   1.0000000000000000     
           3
           2  0.23163403198926275     
           4 -0.78295104693144391     
           8  0.57735026918964305     
 4
 none
          16          16
           6
           1  0.70706775759306018     
           3 -0.69417307017501517     
           5  0.13457024224439249     
           8  -7.4287396188458506E-003
           9   3.8208043755346144E-003
          12   3.3145153288671736E-012
           4
           2 -0.98170897047567984     
           7 -0.19031106167385226     
          11  -5.4034333670804346E-003
          15   6.4837024638109142E-014
           4
           4  0.98170897047567951     
           6 -0.19031106167385137     
          10  -5.4034333671149071E-003
          16  -1.5332179970073412E-013
           6
           1  0.70706775759305585     
           3  0.69417307017501984     
           5 -0.13457024224439199     
           8  -7.4287396188349201E-003
           9  -3.8208043755461607E-003
          12  -3.3263947152306628E-012
           6
           1   7.4287396188396958E-003
           3  0.12393673475705150     
           5  0.63096935257557607     
           8  0.70706775759281582     
           9  0.29413833801199990     
          12   2.5598176356389502E-010
           4
           2  0.17527301116966040     
           7 -0.89232541585410086     
          11 -0.41597442682973462     
          15   5.4205251398542487E-012
           4
           4 -0.17527301116965915     
           6 -0.89232541585401881     
          10 -0.41597442682991159     
          16  -1.3625822692375777E-011
           6
           1   7.4287396188411408E-003
           3 -0.12393673475705178     
           5 -0.63096935257555209     
           8  0.70706775759330043     
           9 -0.29413833801088607     
          12  -2.5489513277854314E-010
           6
           1   4.4276758944213959E-016
           3  -5.2568378532640958E-002
           5 -0.28942792887465851     
           8  -1.0446490469497186E-012
           9  0.64301480447665305     
          12  0.70710678174489772     
           4
           2   3.7171456936407110E-002
           7 -0.20465645117208062     
          11  0.45468012909425637     
          15  0.86602540377849480     
           4
           2   6.4382852005221120E-002
           7 -0.35447537152674963     
          11  0.78752908475709782     
          15 -0.50000000001029510     
           1
          13   1.0000000000000000     
           1
          14   1.0000000000000000     
           4
           4  -6.4382852005220315E-002
           6 -0.35447537152696867     
          10  0.78752908478005468     
          16 -0.49999999997398026     
           4
           4   3.7171456936414562E-002
           6  0.20465645117206099     
          10 -0.45468012905433025     
          16 -0.86602540379946102     
           6
           1   1.0873970748834292E-017
           3  -5.2568378532636198E-002
           5 -0.28942792887460611     
           8   4.1778371310105516E-014
           9  0.64301480570468317     
          12 -0.70710678062819765     
 5
 none
          32          20
           7
           2 -0.94223952970010028     
           4 -0.33211671950647403     
           7   4.1153308169569316E-015
          10  -4.3383418790659635E-002
          11  -9.2949176794720458E-016
          15  -9.8972885716627182E-004
          19   5.9596934667880445E-011
           7
           1  0.94223952970010205     
           3  0.33211671950647015     
           8  -1.2554995152246669E-015
           9  -4.3383418790660155E-002
          14   1.6983632887276866E-014
          16  -9.8972885746246653E-004
          20   9.5074852537625894E-011
           7
           1  0.27347197902860243     
           3 -0.76222413545933232     
           8  0.57129141436549147     
           9  0.10437179777924821     
          14   8.3372708443477384E-002
          16   6.1260287834344676E-004
          20  -2.8964350197446809E-003
           3
           5 -0.98950575560892218     
          13  0.14440576698880492     
          18  -5.0167723117422458E-003
           7
           2 -0.19337389083563372     
           4  0.53897385496734274     
           7 -0.80792806626299196     
          10   7.3802005974258414E-002
          11  0.11790681501260361     
          15   4.3317566059429449E-004
          19   4.0961772436168276E-003
           7
           1 -0.19337389083562673     
           3  0.53897385496734329     
           8  0.80792806626299385     
           9  -7.3802005974251697E-002
          14  0.11790681501262357     
          16  -4.3317566522435932E-004
          20  -4.0961772454203293E-003
           3
           6  0.98950575560892240     
          12 -0.14440576698880497     
          17   5.0167723116468221E-003
           7
           2  0.27347197902860221     
           4 -0.76222413545933054     
           7 -0.57129141436549336     
          10 -0.10437179777924037     
          11   8.3372708443518129E-002
          15  -6.1260288060654500E-004
          19   2.8964349019964253E-003
           7
           2  -9.5218616466369267E-004
           4   7.4319481323425099E-002
           7 -0.11391744552860239     
          10 -0.54419008287982895     
          11 -0.77226147176699078     
          15 -0.17792901049567059     
          19 -0.23930372885058032     
           7
           1  -9.5218616466203828E-004
           3   7.4319481323424363E-002
           8  0.11391744552860011     
           9  0.54419008288129522     
          14 -0.77226147176673832     
          16  0.17792901074985221     
          20  0.23930372926302840     
           3
           6  0.13951980717319551     
          12  0.94582327691974788     
          17 -0.29308601805725382     
           7
           2   1.3465945879700839E-003
           4 -0.10510361843611983     
           7  -8.0551798228730348E-002
          10  0.76960099572262053     
          11 -0.54607132353505539     
          15  0.25162961901203834     
          19 -0.16921329146287234     
           7
           1  -1.3465945879699676E-003
           3  0.10510361843612082     
           8  -8.0551798228728752E-002
           9  0.76960099572107554     
          14  0.54607132353435894     
          16  0.25162961883978852     
          20 -0.16921329302419050     
           3
           5  0.13951980717318802     
          13  0.94582327691971357     
          18 -0.29308601805927376     
           7
           2   1.2374812829734933E-003
           4  -4.0121575754978815E-002
           7  -7.7500976137910303E-015
          10  0.30252458754293504     
          11  -7.4225349246482203E-014
          15 -0.93965208779209441     
          19   4.0842237857165879E-008
           7
           1  -1.2374812829726977E-003
           3   4.0121575754966547E-002
           8   2.2919993326126344E-014
           9  0.30252458754271011     
          14  -2.9787334001165995E-013
          16 -0.93965208794483357     
          20   6.4792337443654371E-008
           7
           2  -1.0386593764942567E-004
           4   3.6578160863243959E-003
           7   2.6702210543150313E-002
          10  -2.4684716763683383E-002
          11  0.20748411961417945     
          15   8.5783084386952271E-002
          19 -0.67199178971802853     
           7
           1  -1.0386593765216385E-004
           3   3.6578160863679396E-003
           8  -2.6702210522806354E-002
           9   2.4684716778987873E-002
          14  0.20748411945324396     
          16  -8.5783083307981275E-002
          20  0.67199177477870942     
           3
           6  -3.2703395405319739E-002
          12 -0.25411511128431352     
          17 -0.82301883364553952     
           7
           2   1.4688861769449131E-004
           4  -5.1729331180019565E-003
           7   1.8881314140046391E-002
          10   3.4909461250617592E-002
          11  0.14671342789906730     
          15 -0.12131560457852722     
          19 -0.47517025946924857     
           7
           1  -1.4688861769446642E-004
           3   5.1729331179802378E-003
           8   1.8881314140720706E-002
           9   3.4909461252950226E-002
          14 -0.14671342789816996     
          16 -0.12131560414290170     
          20 -0.47517042870878551     
           3
           5  -3.2703395404963649E-002
          13 -0.25411511128172770     
          18 -0.82301883376863982     
           7
           2  -8.9274691027282271E-014
           4   3.1483880323844669E-012
           7  -1.1714451771956069E-002
          10  -1.9439176869045091E-011
          11  -8.9422174921182748E-002
          15  -5.0593074085804781E-010
          19  0.30771125138863076     
           7
           1  -9.1349503333063011E-014
           3   3.2102409900469667E-012
           8  -1.1714451818323313E-002
           9   1.9077628552081555E-011
          14   8.9422175314070873E-002
          16   7.8559124666945338E-010
          20  0.30771117125305508     
           3
           5   1.6566736604451182E-002
          13  0.12646205285389978     
          18  0.43516931615367466     
           0
           0
           3
           6   1.6566736604451626E-002
          12  0.12646205285441375     
          17  0.43516931641167150     
           7
           1   1.9680332589027599E-015
           3  -6.4848271435703666E-014
           8   1.4347214757011981E-002
           9  -3.8803552385169304E-013
          14 -0.10951935038915406     
          16  -5.0401501945918488E-011
          20 -0.37686784423376390     
           3
           5   8.2833683026568936E-003
          13   6.3231026430726506E-002
          18  0.21758465836125310     
           3
           6   8.2833683011304844E-003
          12   6.3231026418782324E-002
          17  0.21758465831361154     
           7
           2   4.9549980262100052E-015
           4  -1.5823100826895865E-013
           7   1.4347214757893448E-002
          10   1.0366334526890064E-012
          11  0.10951935039859392     
          15  -3.4641659769681521E-011
          19 -0.37686796651305504     
 6
 none
          40          20
           8
           1 -0.70689633333413848     
           2  0.68526532373925664     
           5 -0.17347233415410868     
           8  -1.7105203158075632E-002
          11   4.0502161384409624E-003
          14  -2.7489989451456864E-013
          17  -1.7387708494515305E-002
          20  -2.2326204565481511E-003
           5
           3  0.96911151465613554     
           7  0.24532692765722822     
           9  -5.7278705916703303E-003
          12   2.4699279080331316E-012
          18   2.4589933169654715E-002
           5
           4 -0.96911151465613965     
           6 -0.24532692765720054     
          10   5.7278705919223717E-003
          13   1.8892847356011266E-012
          19   2.4589933169737069E-002
           8
           1 -0.70689633333412205     
           2 -0.68526532373927740     
           5  0.17347233415415547     
           8  -1.7105203157318821E-002
          11  -4.0502161383290172E-003
          14   3.8071455710220192E-013
          17   1.7387708494827767E-002
          20  -2.2326204528511774E-003
           8
           1  -1.7246597785699799E-002
           2 -0.15834667564783836     
           5 -0.61152014312524039     
           8  0.70270092833321196     
          11  0.30854062764822382     
          14  -3.1475116350071497E-011
          17  -6.7331929134064342E-002
          20   7.6884404206244872E-002
           5
           3 -0.22393601625795381     
           7  0.86482008007386979     
           9 -0.43634234006707662     
          12   1.4024119192324047E-010
          18   9.5221727345108545E-002
           5
           4  0.22393601625788534     
           6 -0.86482008007351530     
          10  0.43634234008160039     
          13   8.6414690073782774E-011
          19   9.5221727346031279E-002
           8
           1  -1.7246597785721299E-002
           2  0.15834667564778884     
           5  0.61152014312239567     
           8  0.70270092833543962     
          11 -0.30854062765217838     
          14   2.7500065159086207E-011
          17   6.7331929123684200E-002
          20   7.6884404202916368E-002
           5
           3   8.9449915865450411E-002
           7 -0.36717157759777513     
           9 -0.77289139917544769     
          12  0.49663509486760521     
          18  -4.3220712432681614E-002
           1
          15  0.99327018930132049     
           1
          16  0.99327018930245226     
           5
           4   8.9449915865515719E-002
           6 -0.36717157759838021     
          10 -0.77289139924302086     
          13 -0.49663509475367640     
          19   4.3220712432730367E-002
           5
           4   5.1643933003644379E-002
           6 -0.21198660916299270     
          10 -0.44622905748745628     
          13  0.86019721660853421     
          19   2.4953489924052299E-002
           8
           1  -2.8280454272122720E-015
           2  -7.3035550468906044E-002
           5 -0.29979433772478009     
           8  -2.9858271449993935E-012
          11 -0.63106318508035564     
          14 -0.70234808631491774     
          17  -3.5289563927585352E-002
          20   9.3677548945163024E-011
           8
           1   1.1146005140576239E-014
           2  -7.3035550469015678E-002
           5 -0.29979433772543873     
           8   1.5778945801022759E-014
          11 -0.63106318501151781     
          14  0.70234808643410418     
          17  -3.5289563910687674E-002
          20  -1.3472259209032561E-010
           5
           3   5.1643933003543210E-002
           7 -0.21198660916271089     
           9 -0.44622905755190595     
          12 -0.86019721658604464     
          18  -2.4953489926615450E-002
           8
           1   3.4642445330707554E-004
           2  -1.7706266444909183E-003
           5  -7.0287786029507179E-002
           8   7.4867320588983238E-002
          11   3.2194342443856869E-002
          14   5.4883022714176388E-011
          17  0.63555610756811176     
          20 -0.68036027522638998     
           5
           3  -2.5040442153083059E-003
           7   9.9401940270028216E-002
           9  -4.5529676048536770E-002
          12  -1.5527520553517381E-010
          18 -0.89881206691355653     
           5
           4  -2.5040442150957615E-003
           6   9.9401940269002842E-002
          10  -4.5529675997207107E-002
          13   1.1700360504003941E-010
          19  0.89881206691775006     
           8