          39
          20
 SPIN
 S
           1
           4
           1
           1
 -0.50000000000000000     
           7
           1           3           6          10          11          15          18
           1
  0.50000000000000000     
           7
           2           4           7           9          12          16          20
           1
  -1.5000000000000000     
           3
           5          13          17
           1
   1.5000000000000000     
           3
           8          14          19
           3
 H
 bosonic
          20          20
         116
           1           1  -16.972228910505368     
           1           3  0.20555276256636537     
           1           6   8.1453982111697960E-015
           1          10 -0.10485961598080855     
           1          11  -1.0455462449098267E-013
           1          15  -1.3094152041855623E-002
           1          18  -4.6063951864794111E-013
           2           2  -16.972228910505248     
           2           4 -0.20555276256639773     
           2           7   5.3889459491265504E-015
           2           9  0.10485961598085715     
           2          12   5.2949183691867150E-014
           2          16   1.3094152041837673E-002
           2          20  -6.2896207555829965E-014
           3           1  0.20555276256636626     
           3           3  -16.622788888754854     
           3           6   9.8611342837511693E-014
           3          10 -0.32636912648320104     
           3          11  -4.5577937173151400E-013
           3          15   5.4520518557679282E-002
           3          18  -1.4051080348566237E-012
           4           2 -0.20555276256639637     
           4           4  -16.622788888754926     
           4           7  -3.1065429151523005E-014
           4           9 -0.32636912648318239     
           4          12  -1.9233620173740247E-013
           4          16   5.4520518557761861E-002
           4          20   1.8908144754753375E-013
           5           5  -16.283118014432134     
           5          13  0.35057839574362304     
           5          17 -0.14711086611193708     
           6           1   6.9214892750940580E-015
           6           3   9.8135574719800475E-014
           6           6  -16.283118014432254     
           6          10   3.9165056073707791E-013
           6          11 -0.35057839574358485     
           6          15  -3.0917325651724815E-013
           6          18 -0.14711086611222929     
           7           2   6.9735620182671196E-015
           7           4  -2.8621994351194977E-014
           7           7  -16.283118014432237     
           7           9  -1.6534364573228229E-013
           7          12  0.35057839574366040     
           7          16   2.3473148580617170E-013
           7          20 -0.14711086611098695     
           8           8  -16.283118014432187     
           8          14 -0.35057839574364719     
           8          19 -0.14711086611198820     
           9           2  0.10485961598085726     
           9           4 -0.32636912648318300     
           9           7  -1.6356016157709719E-013
           9           9  -16.448166126427395     
           9          12  -1.8498094158457437E-013
           9          16   5.5030037415512795E-002
           9          20  -7.6214610825558130E-013
          10           1 -0.10485961598080756     
          10           3 -0.32636912648320171     
          10           6   3.8988298810594803E-013
          10          10  -16.448166126427470     
          10          11   1.4851901412351221E-013
          10          15   5.5030037415728261E-002
          10          18   5.1334756842348883E-012
          11           1  -1.0434421145344339E-013
          11           3  -4.5878656684028528E-013
          11           6 -0.35057839574358307     
          11          10   1.5100082210379648E-013
          11          11  -16.013194690702083     
          11          15   6.1891884968015807E-013
          11          18 -0.23397337604957269     
          12           2   4.9879948161754440E-014
          12           4  -1.9452322731832678E-013
          12           7  0.35057839574365873     
          12           9  -1.8674559438212605E-013
          12          12  -16.013194690700804     
          12          16  -1.5763504030575209E-013
          12          20  0.23397337605571109     
          13           5  0.35057839574362526     
          13          13  -16.013194690700512     
          13          17  0.23397337605157476     
          14           8 -0.35057839574364674     
          14          14  -16.013194690700498     
          14          19 -0.23397337605121682     
          15           1  -1.3094152041855928E-002
          15           3   5.4520518557679191E-002
          15           6  -3.1077912200115631E-013
          15          10   5.5030037415729594E-002
          15          11   6.1921009109396607E-013
          15          15  -15.861116307855177     
          15          18   2.4252455097424495E-013
          16           2   1.3094152041838961E-002
          16           4   5.4520518557760425E-002
          16           7   2.3525705211775116E-013
          16           9   5.5030037415511268E-002
          16          12  -1.5663581408949978E-013
          16          16  -15.861116307854198     
          16          20   1.2594630055126637E-013
          17           5 -0.14711086611193530     
          17          13  0.23397337605157542     
          17          17  -15.778131323718899     
          18           1  -4.6122312220101489E-013
          18           3  -1.4038930038901663E-012
          18           6 -0.14711086611222732     
          18          10   5.1317078524920881E-012
          18          11 -0.23397337604957069     
          18          15   2.4122001551791845E-013
          18          18  -15.778131323720453     
          19           8 -0.14711086611199001     
          19          14 -0.23397337605121893     
          19          19  -15.778131323719579     
          20           2  -6.0827431853415293E-014
          20           4   1.9216316510757492E-013
          20           7 -0.14711086611098623     
          20           9  -7.6177533306873060E-013
          20          12  0.23397337605570989     
          20          16   1.2554489801365368E-013
          20          20  -15.778131323713833     
 S_z
 bosonic
          20          20
         116
           1           1 -0.35799337042447632     
           1           3 -0.25303841066638161     
           1           6 -0.19841283534824466     
           1          10   9.9210205758494874E-002
           1          11   8.7311518238055497E-002
           1          15  -2.6313687580906790E-003
           1          18   4.7292557930801797E-004
           2           2  0.35799337042452756     
           2           4 -0.25303841066629407     
           2           7  0.19841283534825360     
           2           9   9.9210205758525821E-002
           2          12   8.7311518238046990E-002
           2          16  -2.6313687581389932E-003
           2          20  -4.7292557854113315E-004
           3           1 -0.25303841066638161     
           3           3   2.8791281223788451E-002
           3           6  0.41179382359428546     
           3          10   1.2248213127358075E-002
           3          11  -3.1427875926435166E-002
           3          15   8.8922812539137822E-002
           3          18  -7.4286124984118490E-002
           4           2 -0.25303841066629407     
           4           4  -2.8791281223638988E-002
           4           7  0.41179382359435418     
           4           9  -1.2248213127296221E-002
           4          12   3.1427875926438698E-002
           4          16  -8.8922812539090498E-002
           4          20  -7.4286124984444965E-002
           5           5 -0.49407386831739408     
           5          13  -1.4226275164134569E-002
           5          17   3.5071635330884178E-002
           6           1 -0.19841283534824466     
           6           3  0.41179382359428546     
           6           6 -0.16469128943923914     
           6          10   2.7733787309033096E-003
           6          11   4.7420917212212862E-003
           6          15   8.5176576177200522E-002
           6          18   1.1690545110640493E-002
           7           2  0.19841283534825360     
           7           4  0.41179382359435418     
           7           7  0.16469128943903799     
           7           9   2.7733787309475611E-003
           7          12   4.7420917212525138E-003
           7          16   8.5176576177360699E-002
           7          20  -1.1690545110414084E-002
           8           8  0.49407386831739286     
           8          14  -1.4226275164129786E-002
           8          19  -3.5071635331120843E-002
           9           2   9.9210205758525821E-002
           9           4  -1.2248213127296221E-002
           9           7   2.7733787309475611E-003
           9           9  -6.1656310649339435E-002
           9          12 -0.38413403453305478     
           9          16 -0.21525378724575606     
           9          20 -0.19721334430372198     
          10           1   9.9210205758494874E-002
          10           3   1.2248213127358075E-002
          10           6   2.7733787309033096E-003
          10          10   6.1656310649312422E-002
          10          11  0.38413403453295103     
          10          15  0.21525378724614927     
          10          18 -0.19721334430321885     
          11           1   8.7311518238055497E-002
          11           3  -3.1427875926435166E-002
          11           6   4.7420917212212862E-003
          11          10  0.38413403453295103     
          11          11 -0.15528279852205754     
          11          15  0.18340454072019918     
          11          18   2.8064329391974986E-002
          12           2   8.7311518238046990E-002
          12           4   3.1427875926438698E-002
          12           7   4.7420917212525138E-003
          12           9 -0.38413403453305478     
          12          12  0.15528279852202764     
          12          16 -0.18340454072013856     
          12          20   2.8064329391457539E-002
          13           5  -1.4226275164134569E-002
          13          13 -0.46584839556641700     
          13          17  -8.4192988174364769E-002
          14           8  -1.4226275164129786E-002
          14          14  0.46584839556644686     
          14          19  -8.4192988174886657E-002
          15           1  -2.6313687580906790E-003
          15           3   8.8922812539137822E-002
          15           6   8.5176576177200522E-002
          15          10  0.21525378724614927     
          15          11  0.18340454072019918     
          15          15 -0.37017585283709942     
          15          18  -1.1578159472661897E-002
          16           2  -2.6313687581389932E-003
          16           4  -8.8922812539090498E-002
          16           7   8.5176576177360699E-002
          16           9 -0.21525378724575606     
          16          12 -0.18340454072013856     
          16          16  0.37017585283705445     
          16          20  -1.1578159472099421E-002
          17           5   3.5071635330884178E-002
          17          13  -8.4192988174364769E-002
          17          17 -0.29244139842641820     
          18           1   4.7292557930801797E-004
          18           3  -7.4286124984118490E-002
          18           6   1.1690545110640493E-002
          18          10 -0.19721334430321885     
          18          11   2.8064329391974986E-002
          18          15  -1.1578159472661897E-002
          18          18  -9.7480466138844493E-002
          19           8  -3.5071635331120843E-002
          19          14  -8.4192988174886657E-002
          19          19  0.29244139842366373     
          20           2  -4.7292557854113315E-004
          20           4  -7.4286124984444965E-002
          20           7  -1.1690545110414084E-002
          20           9 -0.19721334430372198     
          20          12   2.8064329391457539E-002
          20          16  -1.1578159472099421E-002
          20          20   9.7480466140493674E-002
 S_p
 bosonic
          20          20
          91
           1           5  0.34366111169699731     
           1          13  0.15122798567412279     
           1          17  -8.1913113066047968E-004
           2           1  0.71598674084900948     
           2           3  0.50607682133267662     
           2           6 -0.19841283534823378     
           2          10 -0.19842041151729151     
           2          11   8.7311518237750171E-002
           2          15   5.2627375163880625E-003
           2          18   4.7292557810834414E-004
           3           5 -0.71324782470849524     
           3          13  -5.4434677878356631E-002
           3          17  0.12866734277011244     
           4           1 -0.50607682133265675     
           4           3   5.7582562447417884E-002
           4           6 -0.41179382359442518     
           4          10   2.4496426254350532E-002
           4          11   3.1427875926300863E-002
           4          15  0.17784562507823862     
           4          18   7.4286124984437985E-002
           6           5 -0.57050736174511174     
           6          13  -1.6427087591225003E-002
           6          17   4.0497236198585425E-002
           7           1 -0.19841283534816739     
           7           3  0.41179382359423733     
           7           6 -0.65876515775652622     
           7          10   2.7733787308346853E-003
           7          11   1.8968366885397058E-002
           7          15   8.5176576177178637E-002
           7          18   4.6762180441419950E-002
           8           2 -0.34366111169691033     
           8           4 -0.71324782470837766     
           8           7  0.57050736174529326     
           8           9  -4.8036328707168480E-003
           8          12   1.6427087591367448E-002
           8          16 -0.14753015755387011     
           8          20  -4.0497236198328977E-002
           9           1  0.19842041151726572     
           9           3   2.4496426254410324E-002
           9           6  -2.7733787309227272E-003
           9          10  0.12331262129991072     
           9          11 -0.38413403453371042     
           9          15  0.43050757449136767     
           9          18  0.19721334430313722     
          10           5  -4.8036328707130550E-003
          10          13  0.66533966472726891     
          10          17  0.34158353226387006     
          11           5   1.6427087591330745E-002
          11          13  0.53791539316385406     
          11          17   9.7217688773350047E-002
          12           1  -8.7311518237862734E-002
          12           3   3.1427875926328494E-002
          12           6  -1.8968366885367644E-002
          12          10 -0.38413403453342010     
          12          11  0.62113119408844608     
          12          15 -0.18340454071866047     
          12          18 -0.11225731756573756     
          14           2  0.15122798567415011     
          14           4   5.4434677878450757E-002
          14           7  -1.6427087591248904E-002
          14           9 -0.66533966472732231     
          14          12 -0.53791539316356074     
          14          16 -0.31766598286596254     
          14          20  -9.7217688772766278E-002
          15           5 -0.14753015755370172     
          15          13  0.31766598286611264     
          15          17   2.0053960465587242E-002
          16           1  -5.2627375164361516E-003
          16           3  0.17784562507831170     
          16           6  -8.5176576177472901E-002
          16          10  0.43050757449148458     
          16          11 -0.18340454071882059     
          16          15 -0.74035170567492414     
          16          18   1.1578159472913839E-002
          18           5   4.0497236198204126E-002
          18          13  -9.7217688772033115E-002
          18          17 -0.33768224020722970     
          19           2   8.1913113069127634E-004
          19           4  0.12866734277009184     
          19           7  -4.0497236198436475E-002
          19           9  0.34158353226374816     
          19          12   9.7217688773407404E-002
          19          16   2.0053960464822169E-002
          19          20  0.33768224020800064     
          20           1   4.7292557835240808E-004
          20           3  -7.4286124984186838E-002
          20           6   4.6762180441483212E-002
          20          10 -0.19721334430312648     
          20          11  0.11225731756655577     
          20          15  -1.1578159473998220E-002
          20          18 -0.38992186456584627     
          39
 1
 none
           2           2
           2
           1           1   1.0000000000000000     
           2           2   1.0000000000000000     
 2
 none
           4           4
           6
           1           4   1.0000000000000000     
           2           1 -0.70710678118654746     
           2           2 -0.70710678118654757     
           3           1  0.70710678118654757     
           3           2 -0.70710678118654746     
           4           3   1.0000000000000000     
 3
 none
           8           8
          20
           1           2  0.95891527927997711     
           1           4  0.28369259271860459     
           1           8  -6.4392935428259079E-015
           2           1 -0.95891527927997733     
           2           3 -0.28369259271860425     
           2           5   4.3298697960381105E-015
           3           2  0.16378999477318912     
           3           4 -0.55362999462235774     
           3           8 -0.81649658092771382     
           4           1  0.16378999477318912     
           4           3 -0.55362999462232665     
           4           5  0.81649658092773525     
           5           1  0.23163403198926238     
           5           3 -0.78295104693146622     
           5           5 -0.57735026918961319     
           6           6   1.0000000000000000     
           7           7   1.0000000000000000     
           8           2  0.23163403198926275     
           8           4 -0.78295104693144391     
           8           8  0.57735026918964305     
 4
 none
          16          16
          70
           1           1  0.70706775759306018     
           1           3 -0.69417307017501517     
           1           5  0.13457024224439249     
           1           8  -7.4287396188458506E-003
           1           9   3.8208043755346144E-003
           1          12   3.3145153288671736E-012
           2           2 -0.98170897047567984     
           2           7 -0.19031106167385226     
           2          11  -5.4034333670804346E-003
           2          15   6.4837024638109142E-014
           3           4  0.98170897047567951     
           3           6 -0.19031106167385137     
           3          10  -5.4034333671149071E-003
           3          16  -1.5332179970073412E-013
           4           1  0.70706775759305585     
           4           3  0.69417307017501984     
           4           5 -0.13457024224439199     
           4           8  -7.4287396188349201E-003
           4           9  -3.8208043755461607E-003
           4          12  -3.3263947152306628E-012
           5           1   7.4287396188396958E-003
           5           3  0.12393673475705150     
           5           5  0.63096935257557607     
           5           8  0.70706775759281582     
           5           9  0.29413833801199990     
           5          12   2.5598176356389502E-010
           6           2  0.17527301116966040     
           6           7 -0.89232541585410086     
           6          11 -0.41597442682973462     
           6          15   5.4205251398542487E-012
           7           4 -0.17527301116965915     
           7           6 -0.89232541585401881     
           7          10 -0.41597442682991159     
           7          16  -1.3625822692375777E-011
           8           1   7.4287396188411408E-003
           8           3 -0.12393673475705178     
           8           5 -0.63096935257555209     
           8           8  0.70706775759330043     
           8           9 -0.29413833801088607     
           8          12  -2.5489513277854314E-010
           9           1   4.4276758944213959E-016
           9           3  -5.2568378532640958E-002
           9           5 -0.28942792887465851     
           9           8  -1.0446490469497186E-012
           9           9  0.64301480447665305     
           9          12  0.70710678174489772     
          10           2   3.7171456936407110E-002
          10           7 -0.20465645117208062     
          10          11  0.45468012909425637     
          10          15  0.86602540377849480     
          11           2   6.4382852005221120E-002
          11           7 -0.35447537152674963     
          11          11  0.78752908475709782     
          11          15 -0.50000000001029510     
          12          13   1.0000000000000000     
          13          14   1.0000000000000000     
          14           4  -6.4382852005220315E-002
          14           6 -0.35447537152696867     
          14          10  0.78752908478005468     
          14          16 -0.49999999997398026     
          15           4   3.7171456936414562E-002
          15           6  0.20465645117206099     
          15          10 -0.45468012905433025     
          15          16 -0.86602540379946102     
          16           1   1.0873970748834292E-017
          16           3  -5.2568378532636198E-002
          16           5 -0.28942792887460611     
          16           8   4.1778371310105516E-014
          16           9  0.64301480570468317     
          16          12 -0.70710678062819765     
 5
 none
          32          20
         170
           1           2 -0.94223952970010105     
           1           4 -0.33211671950647376     
           1           5   1.8068224671521175E-015
           1          10  -4.3383418790660003E-002
           1          14   1.2993579126101671E-014
           1          15  -9.8972885647033763E-004
           1          17  -5.1375323591167271E-011
           2           1  0.94223952970010161     
           2           3  0.33211671950647126     
           2           8  -1.3083024953283996E-015
           2           9  -4.3383418790658893E-002
           2          13  -1.7942655876985913E-014
           2          16  -9.8972885740880524E-004
           2          20   8.8293353359666677E-011
           3           1  0.27347197902860299     
           3           3 -0.76222413545933276     
           3           8  0.57129141436549236     
           3           9  0.10437179777919744     
           3          13   8.3372708443575305E-002
           3          16   6.1260287893893754E-004
           3          20  -2.8964350689386076E-003
           4           6 -0.98950575560892184     
           4          11  0.14440576698880797     
           4          19  -5.0167723116513741E-003
           5           2 -0.19337389083563294     
           5           4  0.53897385496734673     
           5           5 -0.80792806626299041     
           5          10   7.3802005974334992E-002
           5          14  0.11790681501263432     
           5          15   4.3317564743088511E-004
           5          17   4.0961776029618535E-003
           6           1 -0.19337389083562737     
           6           3  0.53897385496734329     
           6           8  0.80792806626299396     
           6           9  -7.3802005974317034E-002
           6          13  0.11790681501258704     
           6          16  -4.3317566411573121E-004
           6          20  -4.0961773461363482E-003
           7           7  0.98950575560892184     
           7          12 -0.14440576698880767     
           7          18   5.0167723116051888E-003
           8           2  0.27347197902860249     
           8           4 -0.76222413545932843     
           8           5 -0.57129141436549724     
           8          10 -0.10437179777919163     
           8          14   8.3372708443586879E-002
           8          15  -6.1260288760562427E-004
           8          17   2.8964347908624899E-003
           9           2  -9.5218616466322288E-004
           9           4   7.4319481323425293E-002
           9           5 -0.11391744552859856     
           9          10 -0.54419008288153803     
           9          14 -0.77226147176931659     
           9          15 -0.17792900980637991     
           9          17 -0.23930373399644950     
          10           1  -9.5218616466241298E-004
          10           3   7.4319481323425682E-002
          10           8  0.11391744552860346     
          10           9  0.54419008288017967     
          10          13 -0.77226147176776627     
          10          16  0.17792901067541775     
          10          20  0.23930373102377886     
          11           7  0.13951980717319651     
          11          12  0.94582327691980494     
          11          18 -0.29308601805686396     
          12           2   1.3465945879699720E-003
          12           4 -0.10510361843611994     
          12           5  -8.0551798228728488E-002
          12          10  0.76960099572064466     
          12          14 -0.54607132353770338     
          12          15  0.25162961948199725     
          12          17 -0.16921329131860172     
          13           1  -1.3465945879702654E-003
          13           3  0.10510361843612072     
          13           8  -8.0551798228721216E-002
          13           9  0.76960099572208562     
          13          13  0.54607132353618493     
          13          16  0.25162961889104180     
          13          20 -0.16921329398123888     
          14           6  0.13951980717319046     
          14          11  0.94582327691970847     
          14          19 -0.29308601805762563     
          15           2   1.2374812829734491E-003
          15           4  -4.0121575754979245E-002
          15           5  -8.1184883001204419E-015
          15          10  0.30252458754348566     
          15          14  -4.1099720172703161E-013
          15          15 -0.93965208725860949     
          15          17  -3.4896451722754915E-008
          16           1  -1.2374812829729505E-003
          16           3   4.0121575754968004E-002
          16           8   2.7216665736191929E-014
          16           9  0.30252458754341843     
          16          13  -2.1076290095839336E-013
          16          16 -0.93965208793061283     
          16          20   6.0356046678541824E-008
          17           2  -1.0386593764948190E-004
          17           4   3.6578160863186071E-003
          17           5   2.6702210543149731E-002
          17          10  -2.4684716777770784E-002
          17          14  0.20748411958482393     
          17          15   8.5783089305946483E-002
          17          17 -0.67199229355975953     
          18           1  -1.0386593765146947E-004
          18           3   3.6578160863817220E-003
          18           8  -2.6702210522806295E-002
          18           9   2.4684716765837542E-002
          18          13  0.20748411945340312     
          18          16  -8.5783083245285788E-002
          18          20  0.67199190335132586     
          19           7  -3.2703395405322716E-002
          19          12 -0.25411511128415670     
          19          18 -0.82301883363126249     
          20           2   1.4688861769456747E-004
          20           4  -5.1729331180016052E-003
          20           5   1.8881314140045971E-002
          20          10   3.4909461252797175E-002
          20          14  0.14671342789345532     
          20          15 -0.12131560526859267     
          20          17 -0.47517004422616821     
          21           1  -1.4688861769439736E-004
          21           3   5.1729331179822596E-003
          21           8   1.8881314140720560E-002
          21           9   3.4909461251228548E-002
          21          13 -0.14671342790107433     
          21          16 -0.12131560430024714     
          21          20 -0.47517048738766143     
          22           6  -3.2703395404965870E-002
          22          11 -0.25411511128141701     
          22          19 -0.82301883365198591     
          23           2  -8.9156006566005120E-014
          23           4   3.1440854811150510E-012
          23           5  -1.1714451771958068E-002
          23          10  -2.5446676069061287E-011
          23          14  -8.9422174970612681E-002
          23          15   9.7685997816598113E-010
          23          17  0.30771105319069536     
          24           1  -9.1315790712713408E-014
          24           3   3.2093796250045309E-012
          24           8  -1.1714451818324312E-002
          24           9   2.2160372207766815E-011
          24          13   8.9422175304619947E-002
          24          16  -5.7167705076997355E-010
          24          20  0.30771134164795771     
          25           6   1.6566736604451959E-002
          25          11  0.12646205285462325     
          25          19  0.43516931643359325     
          28           7   1.6566736604451626E-002