          39
          20
 SPIN
 S
           1
           4
           1
           1
 -0.50000000000000000     
           7
           1           3           6           9          12          15          17
           1
  0.50000000000000000     
           7
           2           4           7          10          11          16          20
           1
  -1.5000000000000000     
           3
           5          13          18
           1
   1.5000000000000000     
           3
           8          14          19
           3
 H
 bosonic
          20          20
           7
           1  -16.972228910505297     
           3 -0.20555276256635199     
           6   1.6809430871347112E-014
           9 -0.10485961598085133     
          12  -2.3660921401173132E-014
          15   1.3094152041868291E-002
          17  -7.0989706382931767E-013
           7
           2  -16.972228910505287     
           4 -0.20555276256637411     
           7   8.7789747259953144E-015
          10  0.10485961598085268     
          11  -1.4771604078811507E-014
          16  -1.3094152041839443E-002
          20   2.6080288102747762E-013
           7
           1 -0.20555276256634988     
           3  -16.622788888754947     
           6   2.4469350032448767E-014
           9  0.32636912648314992     
          12   4.5187079760592759E-014
          15   5.4520518557689884E-002
          17   2.2070294937130330E-012
           7
           2 -0.20555276256637922     
           4  -16.622788888754926     
           7   7.0320810806323575E-015
          10 -0.32636912648317407     
          11   8.4416848511459364E-014
          16  -5.4520518557794669E-002
          20  -8.8760943040000484E-013
           3
           5  -16.283118014432354     
          13  0.35057839574363336     
          18  0.14711086611189089     
           7
           1   1.3157872480534916E-014
           3   2.9701356002852929E-014
           6  -16.283118014432311     
           9  -5.1112282437161901E-014
          12  0.35057839574365313     
          15   6.0132860381387219E-014
          17 -0.14711086611308197     
           7
           2   4.8691655091595565E-015
           4   4.5914064650959263E-015
           7  -16.283118014432361     
          10  -7.6903761137003812E-014
          11 -0.35057839574361621     
          16  -1.8243826588326684E-013
          20  0.14711086611106983     
           3
           8  -16.283118014432297     
          14 -0.35057839574366539     
          19  0.14711086611185364     
           7
           1 -0.10485961598085607     
           3  0.32636912648314986     
           6  -5.2741709418612737E-014
           9  -16.448166126427619     
          12   3.9749510395485489E-014
          15  -5.5030037415939176E-002
          17   7.7693817729748151E-012
           7
           2  0.10485961598084639     
           4 -0.32636912648317584     
           7  -7.5684250533392117E-014
          10  -16.448166126427580     
          11   6.3837823915946501E-015
          16  -5.5030037415630062E-002
          20   2.8559932196969839E-012
           7
           2  -2.0118455512641020E-014
           4   8.7898438527744815E-014
           7 -0.35057839574361710     
          10   4.1078251911130792E-015
          11  -16.013194690700857     
          16   3.2751579226442118E-015
          20  0.23397337604684904     
           7
           1  -1.6855167897684260E-014
           3   4.3534962341978120E-014
           6  0.35057839574365407     
           9   3.9063917937529664E-014
          12  -16.013194690700697     
          15   8.1587284847303904E-014
          17  0.23397337604574109     
           3
           5  0.35057839574363497     
          13  -16.013194690700701     
          18 -0.23397337605115665     
           3
           8 -0.35057839574366845     
          14  -16.013194690700782     
          19  0.23397337605131607     
           7
           1   1.3094152041869261E-002
           3   5.4520518557687164E-002
           6   6.2266241487374762E-014
           9  -5.5030037415942146E-002
          12   8.7245200644276775E-014
          15  -15.861116307854815     
          17  -1.5273388929137460E-012
           7
           2  -1.3094152041838295E-002
           4  -5.4520518557796188E-002
           7  -1.8653698377613104E-013
          10  -5.5030037415627231E-002
          11   6.8556271770603416E-015
          16  -15.861116307854669     
          20  -3.0668523276489168E-013
           7
           1  -7.1190313059134736E-013
           3   2.2027324234081471E-012
           6 -0.14711086611308336     
           9   7.7637244830339914E-012
          12  0.23397337604574286     
          15  -1.5302564595320751E-012
          17  -15.778131323726162     
           3
           5  0.14711086611189628     
          13 -0.23397337605115498     
          18  -15.778131323718945     
           3
           8  0.14711086611184915     
          14  0.23397337605131829     
          19  -15.778131323718743     
           7
           2   2.6153103120651888E-013
           4  -8.8485555688189166E-013
           7  0.14711086611106797     
          10   2.8505531268763207E-012
          11  0.23397337604684834     
          16  -3.0929425687276080E-013
          20  -15.778131323705853     
 S_z
 bosonic
          20          20
           7
           1 -0.35799337042447793     
           3  0.25303841066635407     
           6  0.19841283534823065     
           9   9.9210205758617859E-002
          12   8.7311518238012864E-002
          15   2.6313687581682736E-003
          17  -4.7292557852631644E-004
           7
           2  0.35799337042449669     
           4 -0.25303841066632426     
           7  0.19841283534824253     
          10   9.9210205758591588E-002
          11  -8.7311518238021968E-002
          16   2.6313687581504810E-003
          20   4.7292557914926849E-004
           7
           1  0.25303841066635407     
           3   2.8791281223739616E-002
           6  0.41179382359430444     
           9  -1.2248213127245472E-002
          12   3.1427875926370592E-002
          15   8.8922812539160456E-002
          17  -7.4286124984257879E-002
           7
           2 -0.25303841066632426     
           4  -2.8791281223674348E-002
           7  0.41179382359432665     
          10  -1.2248213127265041E-002
          11  -3.1427875926425125E-002
          16   8.8922812539128870E-002
          20   7.4286124984669799E-002
           3
           5 -0.49407386831738370     
          13  -1.4226275164162767E-002
          18  -3.5071635330969464E-002
           7
           1  0.19841283534823065     
           3  0.41179382359430444     
           6 -0.16469128943917238     
           9  -2.7733787309626016E-003
          12  -4.7420917213992142E-003
          15   8.5176576177265859E-002
          17   1.1690545109930563E-002
           7
           2  0.19841283534824253     
           4  0.41179382359432665     
           7  0.16469128943909381     
          10   2.7733787309824525E-003
          11  -4.7420917213140523E-003
          16  -8.5176576177276656E-002
          20   1.1690545107640204E-002
           3
           8  0.49407386831738626     
          14  -1.4226275164156485E-002
          19   3.5071635330972808E-002
           7
           1   9.9210205758617859E-002
           3  -1.2248213127245472E-002
           6  -2.7733787309626016E-003
           9   6.1656310649643928E-002
          12  0.38413403453304457     
          15 -0.21525378724574240     
          17  0.19721334430292378     
           7
           2   9.9210205758591588E-002
           4  -1.2248213127265041E-002
           7   2.7733787309824525E-003
          10  -6.1656310649624541E-002
          11  0.38413403453302547     
          16  0.21525378724586483     
          20  0.19721334430428719     
           7
           2  -8.7311518238021968E-002
           4  -3.1427875926425125E-002
           7  -4.7420917213140523E-003
          10  0.38413403453302547     
          11  0.15528279852226212     
          16 -0.18340454071990972     
          20   2.8064329384842452E-002
           7
           1   8.7311518238012864E-002
           3   3.1427875926370592E-002
           6  -4.7420917213992142E-003
           9  0.38413403453304457     
          12 -0.15528279852203200     
          15 -0.18340454071980206     
          17  -2.8064329390687627E-002
           3
           5  -1.4226275164162767E-002
          13 -0.46584839556634650     
          18   8.4192988174577404E-002
           3
           8  -1.4226275164156485E-002
          14  0.46584839556636065     
          19   8.4192988174588035E-002
           7
           1   2.6313687581682736E-003
           3   8.8922812539160456E-002
           6   8.5176576177265859E-002
           9 -0.21525378724574240     
          12 -0.18340454071980206     
          15 -0.37017585283746690     
          17  -1.1578159473329946E-002
           7
           2   2.6313687581504810E-003
           4   8.8922812539128870E-002
           7  -8.5176576177276656E-002
          10  0.21525378724586483     
          11 -0.18340454071990972     
          16  0.37017585283736820     
          20  -1.1578159470908223E-002
           7
           1  -4.7292557852631644E-004
           3  -7.4286124984257879E-002
           6   1.1690545109930563E-002
           9  0.19721334430292378     
          12  -2.8064329390687627E-002
          15  -1.1578159473329946E-002
          17  -9.7480466146978098E-002
           3
           5  -3.5071635330969464E-002
          13   8.4192988174577404E-002
          18 -0.29244139842579764     
           3
           8   3.5071635330972808E-002
          14   8.4192988174588035E-002
          19  0.29244139842566175     
           7
           2   4.7292557914926849E-004
           4   7.4286124984669799E-002
           7   1.1690545107640204E-002
          10  0.19721334430428719     
          11   2.8064329384842452E-002
          16  -1.1578159470908223E-002
          20   9.7480466173163818E-002
 S_p
 bosonic
          20          20
           3
           5  0.34366111169695635     
          13  0.15122798567420581     
          18   8.1913113065442062E-004
           7
           1  0.71598674084897385     
           3 -0.50607682133267096     
           6  0.19841283534826482     
           9 -0.19842041151725245     
          12   8.7311518237978517E-002
          15  -5.2627375163018814E-003
          17  -4.7292558040974415E-004
           3
           5  0.71324782470843784     
          13   5.4434677878499059E-002
          18  0.12866734277017228     
           7
           1 -0.50607682133267717     
           3  -5.7582562447394306E-002
           6  0.41179382359434996     
           9   2.4496426254500780E-002
          12   3.1427875926420004E-002
          15 -0.17784562507829382     
          17  -7.4286124983696952E-002
           0
           3
           5  0.57050736174516492     
          13   1.6427087591184837E-002
          18   4.0497236198532474E-002
           7
           1 -0.19841283534822293     
           3 -0.41179382359427391     
           6  0.65876515775651734     
           9   2.7733787309835445E-003
          12   1.8968366885532682E-002
          15  -8.5176576177307631E-002
          17  -4.6762180441578503E-002
           7
           2 -0.34366111169693941     
           4 -0.71324782470839898     
           7  0.57050736174522876     
          10  -4.8036328707020751E-003
          11  -1.6427087591225020E-002
          16  0.14753015755376869     
          20   4.0497236194692469E-002
           3
           5  -4.8036328706566852E-003
          13  0.66533966472747896     
          18 -0.34158353226397253     
           7
           1  0.19842041151724121     
           3  -2.4496426254507798E-002
           6   2.7733787309677693E-003
           9  0.12331262129965952     
          12 -0.38413403453308959     
          15 -0.43050757449159094     
          17 -0.19721334430331075     
           7
           1   8.7311518237946806E-002
           3   3.1427875926304930E-002
           6  -1.8968366885504396E-002
           9  0.38413403453328188     
          12 -0.62113119408849127     
          15 -0.18340454071958856     
          17 -0.11225731756697194     
           3
           5   1.6427087591160818E-002
          13  0.53791539316366721     
          18  -9.7217688773102398E-002
           0
           7
           2  0.15122798567418333     
           4   5.4434677878483918E-002
           7  -1.6427087591187401E-002
          10 -0.66533966472750372     
          11  0.53791539316368786     
          16  0.31766598286564779     
          20   9.7217688763573576E-002
           3
           5  0.14753015755380766     
          13 -0.31766598286551384     
          18   2.0053960465267379E-002
           7
           1   5.2627375164103277E-003
           3  0.17784562507833440     
           6  -8.5176576177287050E-002
           9 -0.43050757449147548     
          12  0.18340454071955356     
          15 -0.74035170567497344     
          17   1.1578159472772064E-002
           3
           5  -4.0497236198857874E-002
          13   9.7217688773447913E-002
          18 -0.33768224020406917     
           0
           7
           2  -8.1913113063803236E-004
           4 -0.12866734277014272     
           7   4.0497236198536332E-002
          10 -0.34158353226389970     
          11   9.7217688772981578E-002
          16   2.0053960465368462E-002
          20  0.33768224022965576     
           7
           1  -4.7292557844344263E-004
           3  -7.4286124984878424E-002
           6   4.6762180439683179E-002
           9  0.19721334430432977     
          12 -0.11225731756193501     
          15  -1.1578159470422870E-002
          17 -0.38992186457546946     
          39
 1
 none
           2           2
           1
           1   1.0000000000000000     
           1
           2   1.0000000000000000     
 2
 none
           4           4
           1
           3   1.0000000000000000     
           2
           1 -0.70710678118654735     
           2 -0.70710678118654757     
           2
           1  0.70710678118654757     
           2 -0.70710678118654735     
           1
           4   1.0000000000000000     
 3
 none
           8           8
           3
           1 -0.95891527927997711     
           4 -0.28369259271860398     
           6   3.8857805861880479E-015
           3
           1  0.16378999477318890     
           4 -0.55362999462232787     
           6  0.81649658092773403     
           1
           7   1.0000000000000000     
           3
           2  0.23163403198926266     
           3  0.78295104693141115     
           5  0.57735026918968713     
           3
           2  0.95891527927997666     
           3 -0.28369259271860470     
           5  -2.2398749521812533E-014
           3
           2  0.16378999477318915     
           3  0.55362999462240392     
           5 -0.81649658092768229     
           3
           1  0.23163403198926225     
           4 -0.78295104693146500     
           6 -0.57735026918961441     
           1
           8   1.0000000000000000     
 4
 none
          16          16
           4
           2 -0.98170897047567929     
           5 -0.19031106167385278     
          10  -5.4034333670653911E-003
          15   1.1901590823981678E-013
           6
           1  0.70706775759305607     
           3  0.69417307017501939     
           7  0.13457024224437814     
           8   7.4287396190460542E-003
          11   3.8208043756508270E-003
          16   4.7986267737165633E-012
           6
           1  -7.4287396188414487E-003
           3  0.12393673475705534     
           7 -0.63096935257638054     
           8  0.70706775759179497     
          11 -0.29413833801272582     
          16  -3.7832215398631019E-010
           4
           2  0.17527301116966040     
           5 -0.89232541585413383     
          10 -0.41597442682966390     
          15   1.1532552690596276E-011
           6
           1  -4.7271214720367993E-016
           3  -5.2568378532629356E-002
           7  0.28942792887475188     
           8  -2.1414189865787137E-012
          11 -0.64301480418458457     
          16 -0.70710678201045629     
           4
           2   3.7171456936406888E-002
           5 -0.20465645117216744     
          10  0.45468012910726091     
          15  0.86602540377164627     
           1
          12   1.0000000000000000     
           4
           4  -6.4382852005220162E-002
           6  0.35447537152690700     
           9  0.78752908476390493     
          14 -0.49999999999946143     
           6
           1  0.70706775759306029     
           3 -0.69417307017501506     
           7 -0.13457024224440095     
           8   7.4287396186350496E-003
          11  -3.8208043756672305E-003
          16  -4.8393095086751714E-012
           4
           4  0.98170897047567973     
           6  0.19031106167385092     
           9  -5.4034333671141299E-003
          14  -9.7491459349896559E-016
           4
           4  0.17527301116965688     
           6 -0.89232541585400893     
           9  0.41597442682993424     
          14   3.4245523083953344E-013
           6
           1   7.4287396188401729E-003
           3  0.12393673475705203     
           7 -0.63096935257424602     
           8 -0.70706775759432128     
          11 -0.29413833801123362     
          16  -3.7452258655479298E-010
           4
           4   3.7171456936424513E-002
           6 -0.20465645117221148     
           9 -0.45468012908228272     
          14 -0.86602540378474957     
           6
           1   2.9719167393953833E-016
           3  -5.2568378532641159E-002
           7  0.28942792887560809     
           8   1.6583571904085694E-012
          11 -0.64301480599625949     
          16  0.70710678036263930     
           4
           2   6.4382852005221147E-002
           5 -0.35447537152661623     
          10  0.78752908474962657     
          15 -0.50000000002215650     
           1
          13   1.0000000000000000     
 5
 none
          32          20
           7
           1  0.94223952970010172     
           3 -0.33211671950647176     
           8   1.9170633145640650E-015
           9  -4.3383418790660287E-002
          14   1.5194568310221502E-014
          15   9.8972885664874483E-004
          17   2.9345086438658921E-011
           3
           5 -0.98950575560892295     
          13  0.14440576698880403     
          20  -5.0167723116816554E-003
           7
           1 -0.19337389083562848     
           3 -0.53897385496734818     
           8 -0.80792806626299052     
           9  -7.3802005974356016E-002
          14 -0.11790681501252473     
          15   4.3317565615044740E-004
          17  -4.0961773543417568E-003
           7
           2  0.27347197902860221     
           4 -0.76222413545932977     
           7 -0.57129141436549613     
          10 -0.10437179777911137     
          11   8.3372708443672811E-002
          16   6.1260288292856735E-004
          18  -2.8964348289790554E-003
           3
           5  0.13951980717318446     
          13  0.94582327691963275     
          20 -0.29308601805796974     
           7
           2  -1.3465945879699746E-003
           4  0.10510361843611987     
           7   8.0551798228726657E-002
          10 -0.76960099571060003     
          11  0.54607132354134336     
          16  0.25162961897874841     
          18 -0.16921329189995310     
           7
           1   9.5218616466053656E-004
           3   7.4319481323361067E-002
           8  0.11391744552863015     
           9 -0.54419008288214343     
          14 -0.77226147176235815     
          15  0.17792901025380917     
          17 -0.23930373049934758     
           7
           1   1.2374812829747878E-003
           3   4.0121575755087700E-002
           8   1.6920210875185697E-013
           9 -0.30252458754406231     
          14  -1.0288786978757614E-012
          15 -0.93965208738777561     
          17  -1.9856159908562466E-008
           7
           2   1.4688861769453557E-004
           4  -5.1729331179991818E-003
           7   1.8881314140507959E-002
          10   3.4909461256826792E-002
          11  0.14671342790432773     
          16  0.12131560504193735     
          18  0.47517011693539485     
           3
           5  -3.2703395404849622E-002
          13 -0.25411511128081854     
          20 -0.82301883365578032     
           7
           1   1.0386593765040737E-004
           3   3.6578160863646016E-003
           8  -2.6702210547885952E-002
           9  -2.4684716780159092E-002
          14  0.20748411963325178     
          15  -8.5783086936718086E-002
          17 -0.67199194117643657     
           0
           3
           6   1.6566736604452702E-002
          12 -0.12646205285439893     
          19  0.43516931640712087     
           7
           2   3.9602665459872229E-016
           4  -3.9073562094205094E-015
           7   1.4347214757272369E-002
          10   2.6221968932142736E-012
          11  0.10951935038787942     
          16  -1.8595184259583009E-009
          18  0.37686766945439848     
           3
           5   8.2833683031671157E-003
          13   6.3231026434710028E-002
          20  0.21758465845175951     
           7
           1   1.2904256694404065E-013
           3   4.5344935217708077E-012
           8   1.1714451760867264E-002
           9  -3.0426020210250204E-011
          14  -8.9422174867558712E-002
          15  -1.1215955139469436E-010
          17  0.30771113138902650     
           7
           2 -0.94223952970010105     
           4 -0.33211671950647298     
           7   1.3157280771015737E-015
          10  -4.3383418790634683E-002
          11   8.3821002745480421E-015
          16   9.8972885851468257E-004
          18   1.0573123381605476E-011
           7
           1  0.27347197902860271     
           3  0.76222413545932866     
           8 -0.57129141436549580     
           9  0.10437179777917696     
          14  -8.3372708443508192E-002
          15  -6.1260288203426883E-004
          17  -2.8964348813765861E-003
           7
           2 -0.19337389083563170     
           4  0.53897385496734584     
           7 -0.80792806626299152     
          10   7.3802005974423213E-002
          11  0.11790681501275205     
          16  -4.3317566417896969E-004
          18  -4.0961774736935075E-003
           3
           6  0.98950575560892151     
          12  0.14440576698880747     
          19   5.0167723117163776E-003
           7
           1  -1.3465945879701615E-003
           3 -0.10510361843612327     
           8   8.0551798228736871E-002
           9  0.76960099572001284     
          14 -0.54607132353422883     
          15 -0.25162961917109433     
          17 -0.16921329151826653     
           3
           6 -0.13951980717319831     
          12  0.94582327691961610     
          19  0.29308601805788115     
           7
           2   9.5218616466412537E-004
           4  -7.4319481323480957E-002
           7  0.11391744552861328     
          10  0.54419008288125004     
          11  0.77226147177757021     
          16 -0.17792901059202709     
          18 -0.23930373181417861     
           7
           2  -1.2374812829721480E-003
           4   4.0121575754856989E-002
           7   1.0891464117813699E-013
          10 -0.30252458756695627     
          11   1.0973560010538425E-011
          16 -0.93965208780283160     
          18  -7.0646299129489304E-009
           3
           6  -3.2703395405055291E-002
          12  0.25411511128273517     
          19 -0.82301883365281081     
           7
           1  -1.4688861769429135E-004
           3  -5.1729331179882253E-003
           8  -1.8881314140942962E-002
           9   3.4909461250598912E-002
          14  0.14671342794015393     
          15  0.12131560593206456     
          17 -0.47517020978418101     
           7
           2   1.0386593765289739E-004
           4  -3.6578160864475591E-003
           7  -2.6702210517869363E-002
          10   2.4684716804067388E-002
          11 -0.20748411935438876     
          16   8.5783083511722008E-002
          18 -0.67199212074768211     
           3
           5   1.6566736604451539E-002
          13  0.12646205285433834     
          20  0.43516931632274602     
           0
           3
           6   8.2833683022045593E-003
          12  -6.3231026427124817E-002
          19  0.21758465829435969     
           7
           1   3.9398226124922125E-015
           3   1.2799216879768888E-013
           8  -1.4347214756718000E-002
           9  -7.5382961591680120E-013
          14  0.10951935038808497     
          15  -2.7733935262939049E-012
          17 -0.37686785599938966     
           7
           2   1.3593242096123105E-013
           4  -4.7525990465614450E-012
           7  -1.1714451829409212E-002
          10   3.2099010949249163E-011
          11  -8.9422175398351969E-002
          16   7.7617405206439964E-011
          18 -0.30771110984853839     
 6
 none
          40          20
           5
           3 -0.96911151465611967     
           7 -0.24532692765723010     
           9   5.7278705920753431E-003
          12  -1.7452705947107461E-012
          18   2.4589933170268252E-002
           8
           1 -0.70689633333412338     
           2 -0.68526532373929605     
           5  0.17347233415416444     
           8  -1.7105203157333201E-002
          11  -4.0502161372004963E-003
          14  -6.1130831299771593E-013
          19  -1.7387708400164525E-002
          20   2.2326211467010720E-003
           5
           3 -0.22393601625791348     
           7  0.86482008007295164     
           9 -0.43634234008995454     
          12   1.0575640883858650E-010
          18  -9.5221727355611963E-002
           8
           1  -1.7246597785719978E-002
           2  0.15834667564786992     
           5  0.61152014312350245     
           8  0.70270092833535158     
          11 -0.30854062761401246     
          14   2.4951257531456716E-011
          19  -6.7331931842773252E-002
          20  -7.6884402835337040E-002
           1
          15  0.99327018930240119     
           5
           4  -8.9449915865573187E-002
           6 -0.36717157759872227     
          10  0.77289139926987793     
          13  0.49663509471001788     
          17   4.3220712425981155E-002
           8
           1  -3.1948964686941833E-015
           2  -7.3035550468570326E-002
           5 -0.29979433772399527     
           8  -3.0085933744317117E-012
          11 -0.63106318501876579     
          14 -0.70234808635613599     
          19   3.5289564868715782E-002
          20  -4.5622681726226189E-009
           5
           3   5.1643933003834776E-002
           7 -0.21198660916358819     
           9 -0.44622905758241427     
          12 -0.86019721661680748     
          18   2.4953489942803785E-002
           5
           3   2.5040442151376438E-003
           7  -9.9401940270360617E-002
           9   4.5529675975446091E-002
          12   6.7091355041015710E-011
          18 -0.89881206697776972     
           8
           1  -3.4642445326846629E-004
           2  -1.7706266447399782E-003
           5  -7.0287786027634941E-002
           8  -7.4867320585551581E-002
          11   3.2194342567203028E-002
          14   1.5214658269457166E-011
          19 -0.63555613393791188     
          20 -0.68036025122993360     
           8
           1  -1.7888560215294044E-014
           2  -6.6160164876869008E-004
           5  -3.3601378128467710E-002
           8  -2.2585157112835642E-012
          11  -7.2803690516508229E-002
          14  -8.0609012897287113E-002
          19 -0.29954210818215371     
          20   4.1455324868000911E-008
           5
           4   8.1029322613776912E-004
           6   4.1153115532016629E-002
          10  -8.9165946601706250E-002
          13  -5.6999179640727787E-002
          17  0.36686265007984831     
           1
          15  0.11399835927039348     
           5
           3  -4.6782301171143062E-004
           7   2.3759762327695499E-002
           9   5.1479983439798455E-002
          12   9.8725475312497424E-002
          18  0.21180824975975795     
           5
           3  -3.3763393775036235E-005
           7   2.9009262884884626E-003
           9   9.8324589759921453E-003
          12   8.7082115743769048E-011
          18   2.2585742371154481E-002
           8
           1  -9.3667912219116687E-005
           2   2.3874325119694654E-005
           5   2.0512646554590604E-003
           8  -1.7711624740397600E-002
          11   6.9525983080828708E-003
          14   3.8024721230958255E-011
          19   1.5970530023426428E-002
          20 -0.17661740904610998     
           5
           3  -2.6019789233934211E-005
           7   3.0474635608490478E-004
           9  -8.9538208202730608E-003
          12  -1.7720860406677769E-002
          18   1.8210654000422179E-003
           8
           1  -1.7030420201103015E-015
           2   3.6797535487364256E-005
           5   4.3097641975828197E-004
           8   4.5163200673573652E-012
          11  -1.2662613559305301E-002
          14  -1.4469020467660947E-002
          19   2.5753755190419930E-003
          20  -1.9056118259020783E-010
           5
           4   4.5067592460760255E-005
           6   5.2783617679871668E-004
          10   1.5508470629643282E-002
          13   1.0231142775485088E-002
          17   3.1541780778845010E-003
           1