          39
          20
 SPIN
 S
           1
           4
           1
           1
  0.50000000000000000     
           7
           1           3           6          10          11          15          20
           1
 -0.50000000000000000     
           7
           2           4           7           9          12          16          19
           1
   1.5000000000000000     
           3
           5          13          17
           1
  -1.5000000000000000     
           3
           8          14          18
           3
 H
 bosonic
          20          20
         116
           1           1  -16.972228910505354     
           1           3  0.20555276256635166     
           1           6  -2.4811966717330769E-016
           1          10  0.10485961598079942     
           1          11  -7.0212932690161267E-014
           1          15   1.3094152041892208E-002
           1          20   2.2318301720614109E-013
           2           2  -16.972228910505308     
           2           4  0.20555276256639696     
           2           7   1.4679506401545714E-014
           2           9  0.10485961598086886     
           2          12  -5.8954572372665087E-014
           2          16  -1.3094152041872722E-002
           2          19   4.3804564635223534E-014
           3           1  0.20555276256635352     
           3           3  -16.622788888754879     
           3           6  -1.5255223299870391E-013
           3          10  0.32636912648320104     
           3          11  -3.3992253456460730E-013
           3          15  -5.4520518557627004E-002
           3          20   5.3403288735598409E-013
           4           2  0.20555276256639432     
           4           4  -16.622788888754965     
           4           7  -3.6888810662481211E-014
           4           9  0.32636912648316935     
           4          12  -2.4660390375987830E-013
           4          16   5.4520518557709632E-002
           4          19   3.3481030459294020E-014
           5           5  -16.283118014432148     
           5          13 -0.35057839574364547     
           5          17 -0.14711086611178675     
           6           1   2.2124500582282325E-015
           6           3  -1.5181264448674292E-013
           6           6  -16.283118014432240     
           6          10   3.9348559133234318E-013
           6          11  0.35057839574367033     
           6          15  -1.5731469946156373E-013
           6          20 -0.14711086611108964     
           7           2   1.5890433198428381E-014
           7           4  -3.4813345728525733E-014
           7           7  -16.283118014432276     
           7           9  -2.7903282881564400E-013
           7          12 -0.35057839574362842     
           7          16  -3.0920311647129035E-013
           7          19  0.14711086611191015     
           8           8  -16.283118014432265     
           8          14 -0.35057839574361244     
           8          18 -0.14711086611206578     
           9           2  0.10485961598087304     
           9           4  0.32636912648316840     
           9           7  -2.7885903579783752E-013
           9           9  -16.448166126427640     
           9          12   3.2598885201369269E-013
           9          16  -5.5030037415894628E-002
           9          19   2.6600913237757647E-013
          10           1  0.10485961598079728     
          10           3  0.32636912648320177     
          10           6   3.9159300802005248E-013
          10          10  -16.448166126427612     
          10          11  -3.5582647939236267E-014
          10          15   5.5030037415774474E-002
          10          20   2.3898105716568807E-012
          11           1  -7.2106383364189952E-014
          11           3  -3.4317514108206382E-013
          11           6  0.35057839574367011     
          11          10  -3.7914116290949096E-014
          11          11  -16.013194690700615     
          11          15  -6.7265637504476672E-014
          11          20  0.23397337604855251     
          12           2  -5.4480813771544888E-014
          12           4  -2.4701165747031347E-013
          12           7 -0.35057839574362548     
          12           9   3.2550939886564765E-013
          12          12  -16.013194690700651     
          12          16  -1.9508425362210883E-013
          12          19  0.23397337604933882     
          13           5 -0.35057839574364802     
          13          13  -16.013194690700484     
          13          17 -0.23397337605168667     
          14           8 -0.35057839574360994     
          14          14  -16.013194690700452     
          14          18 -0.23397337605151725     
          15           1   1.3094152041890997E-002
          15           3  -5.4520518557629960E-002
          15           6  -1.6090774546118070E-013
          15          10   5.5030037415775335E-002
          15          11  -6.6502359175046877E-014
          15          15  -15.861116307855085     
          15          20  -9.4942109729601043E-013
          16           2  -1.3094152041872639E-002
          16           4   5.4520518557707870E-002
          16           7  -3.0740438218691618E-013
          16           9  -5.5030037415895044E-002
          16          12  -1.9419436147437914E-013
          16          16  -15.861116307855134     
          16          19   4.1678521177900299E-013
          17           5 -0.14711086611178420     
          17          13 -0.23397337605168689     
          17          17  -15.778131323718341     
          18           8 -0.14711086611206986     
          18          14 -0.23397337605151547     
          18          18  -15.778131323719700     
          19           2   4.2491999741502566E-014
          19           4   3.6524206617876281E-014
          19           7  0.14711086611191193     
          19           9   2.6769669602498526E-013
          19          12  0.23397337604933843     
          19          16   4.1715170681149082E-013
          19          19  -15.778131323717123     
          20           1   2.2290285936477083E-013
          20           3   5.3266679261865235E-013
          20           6 -0.14711086611108951     
          20          10   2.3883672817248680E-012
          20          11  0.23397337604855303     
          20          15  -9.4893537472273692E-013
          20          20  -15.778131323708594     
 S_z
 bosonic
          20          20
         116
           1           1  0.35799337042448282     
           1           3  0.25303841066638449     
           1           6 -0.19841283534823514     
           1          10   9.9210205758499162E-002
           1          11  -8.7311518238046407E-002
           1          15  -2.6313687580803431E-003
           1          20   4.7292557901941332E-004
           2           2 -0.35799337042452717     
           2           4 -0.25303841066629595     
           2           7 -0.19841283534824400     
           2           9  -9.9210205758525100E-002
           2          12   8.7311518238053082E-002
           2          16  -2.6313687581103300E-003
           2          19  -4.7292557892041314E-004
           3           1  0.25303841066638449     
           3           3  -2.8791281223828596E-002
           3           6  0.41179382359428868     
           3          10   1.2248213127365515E-002
           3          11   3.1427875926405280E-002
           3          15   8.8922812539129134E-002
           3          20  -7.4286124984648580E-002
           4           2 -0.25303841066629595     
           4           4   2.8791281223653761E-002
           4           7  0.41179382359434880     
           4           9  -1.2248213127295925E-002
           4          12  -3.1427875926433937E-002
           4          16   8.8922812539077065E-002
           4          19   7.4286124984441218E-002
           5           5  0.49407386831739247     
           5          13  -1.4226275164136791E-002
           5          17  -3.5071635330964641E-002
           6           1 -0.19841283534823514     
           6           3  0.41179382359428868     
           6           6  0.16469128943925776     
           6          10  -2.7733787308760432E-003
           6          11   4.7420917212123827E-003
           6          15  -8.5176576177245278E-002
           6          20  -1.1690545108852445E-002
           7           2 -0.19841283534824400     
           7           4  0.41179382359434880     
           7           7 -0.16469128943905526     
           7           9  -2.7733787309366033E-003
           7          12   4.7420917212858925E-003
           7          16   8.5176576177344102E-002
           7          19  -1.1690545110886736E-002
           8           8 -0.49407386831739264     
           8          14   1.4226275164127781E-002
           8          18   3.5071635331099166E-002
           9           2  -9.9210205758525100E-002
           9           4  -1.2248213127295925E-002
           9           7  -2.7733787309366033E-003
           9           9   6.1656310649275146E-002
           9          12 -0.38413403453303957     
           9          16 -0.21525378724581451     
           9          19 -0.19721334430370957     
          10           1   9.9210205758499162E-002
          10           3   1.2248213127365515E-002
          10           6  -2.7733787308760432E-003
          10          10  -6.1656310649393267E-002
          10          11  0.38413403453293760     
          10          15 -0.21525378724610217     
          10          20  0.19721334430426038     
          11           1  -8.7311518238046407E-002
          11           3   3.1427875926405280E-002
          11           6   4.7420917212123827E-003
          11          10  0.38413403453293760     
          11          11  0.15528279852217233     
          11          15  0.18340454072028214     
          11          20   2.8064329387642334E-002
          12           2   8.7311518238053082E-002
          12           4  -3.1427875926433937E-002
          12           7   4.7420917212858925E-003
          12           9 -0.38413403453303957     
          12          12 -0.15528279852186250     
          12          16  0.18340454072029752     
          12          19  -2.8064329392764261E-002
          13           5  -1.4226275164136791E-002
          13          13  0.46584839556641966     
          13          17  -8.4192988174539157E-002
          14           8   1.4226275164127781E-002
          14          14 -0.46584839556646085     
          14          18   8.4192988174813521E-002
          15           1  -2.6313687580803431E-003
          15           3   8.8922812539129134E-002
          15           6  -8.5176576177245278E-002
          15          10 -0.21525378724610217     
          15          11  0.18340454072028214     
          15          15  0.37017585283695326     
          15          20   1.1578159470468573E-002
          16           2  -2.6313687581103300E-003
          16           4   8.8922812539077065E-002
          16           7   8.5176576177344102E-002
          16           9 -0.21525378724581451     
          16          12  0.18340454072029752     
          16          16 -0.37017585283699145     
          16          19   1.1578159471483461E-002
          17           5  -3.5071635330964641E-002
          17          13  -8.4192988174539157E-002
          17          17  0.29244139842554323     
          18           8   3.5071635331099166E-002
          18          14   8.4192988174813521E-002
          18          18 -0.29244139842393913     
          19           2  -4.7292557892041314E-004
          19           4   7.4286124984441218E-002
          19           7  -1.1690545110886736E-002
          19           9 -0.19721334430370957     
          19          12  -2.8064329392764261E-002
          19          16   1.1578159471483461E-002
          19          19  -9.7480466135094271E-002
          20           1   4.7292557901941332E-004
          20           3  -7.4286124984648580E-002
          20           6  -1.1690545108852445E-002
          20          10  0.19721334430426038     
          20          11   2.8064329387642334E-002
          20          15   1.1578159470468573E-002
          20          20   9.7480466160545315E-002
 S_p
 bosonic
          20          20
          91
           1           2 -0.71598674084901892     
           1           4 -0.50607682133264653     
           1           7  0.19841283534817178     
           1           9 -0.19842041151727141     
           1          12  -8.7311518237851590E-002
           1          16  -5.2627375163529612E-003
           1          19   4.7292557880572082E-004
           2           8  0.34366111169691177     
           2          14 -0.15122798567414988     
           2          18  -8.1913113069200568E-004
           3           2 -0.50607682133265275     
           3           4   5.7582562447417648E-002
           3           7 -0.41179382359422179     
           3           9  -2.4496426254440883E-002
           3          12   3.1427875926276487E-002
           3          16  0.17784562507823332     
           3          19  -7.4286124984115590E-002
           4           8 -0.71324782470839188     
           4          14   5.4434677878407257E-002
           4          18  0.12866734277010111     
           5           1 -0.34366111169698688     
           5           3  0.71324782470852000     
           5           6 -0.57050736174509986     
           5          10  -4.8036328707167925E-003
           5          11  -1.6427087591302288E-002
           5          15 -0.14753015755377302     
           5          20   4.0497236195053098E-002
           6           2 -0.19841283534823384     
           6           4  0.41179382359442246     
           6           7 -0.65876515775654398     
           6           9  -2.7733787309196585E-003
           6          12   1.8968366885355772E-002
           6          16   8.5176576177507429E-002
           6          19  -4.6762180440296924E-002
           7           8 -0.57050736174527439     
           7          14   1.6427087591193618E-002
           7          18   4.0497236198524987E-002
           9           8   4.8036328706659174E-003
           9          14  0.66533966472726169     
           9          18 -0.34158353226375654     
          10           2 -0.19842041151729653     
          10           4  -2.4496426254308735E-002
          10           7   2.7733787307705239E-003
          10           9  0.12331262129974332     
          10          12  0.38413403453337314     
          10          16 -0.43050757449155913     
          10          19  0.19721334430295551     
          11           2  -8.7311518237861693E-002
          11           4   3.1427875926304437E-002
          11           7  -1.8968366885428072E-002
          11           9  0.38413403453356454     
          11          12  0.62113119408843442     
          11          16 -0.18340454071919735     
          11          19  0.11225731756339276     
          12           8   1.6427087591302816E-002
          12          14 -0.53791539316387627     
          12          18   9.7217688773207578E-002
          13           1  0.15122798567412954     
          13           3  -5.4434677878371820E-002
          13           6   1.6427087591249882E-002
          13          10 -0.66533966472728479     
          13          11  0.53791539316377845     
          13          15 -0.31766598286624692     
          13          20   9.7217688764377017E-002
          15           2   5.2627375163192209E-003
          15           4 -0.17784562507823409     
          15           7   8.5176576177300942E-002
          15           9  0.43050757449139909     
          15          12  0.18340454071899190     
          15          16  0.74035170567448128     
          15          19   1.1578159473209842E-002
          16           8 -0.14753015755383009     
          16          14 -0.31766598286609399     
          16          18   2.0053960464868032E-002
          17           1   8.1913113062702684E-004
          17           3 -0.12866734277015496     
          17           6   4.0497236198287552E-002
          17          10  0.34158353226400884     
          17          11  -9.7217688772790189E-002
          17          15   2.0053960465136203E-002
          17          20 -0.33768224022704268     
          19           8  -4.0497236197873439E-002
          19          14  -9.7217688771304392E-002
          19          18  0.33768224021014409     
          20           2   4.7292557844243801E-004
          20           4  -7.4286124984488042E-002
          20           7   4.6762180440469571E-002
          20           9  0.19721334430385426     
          20          12  0.11225731756386614     
          20          16  -1.1578159472022769E-002
          20          19  0.38992186457886346     
          39
 1
 none
           2           2
           2
           1           1   1.0000000000000000     
           2           2   1.0000000000000000     
 2
 none
           4           4
           6
           1           3   1.0000000000000000     
           2           1 -0.70710678118654735     
           2           2 -0.70710678118654757     
           3           1  0.70710678118654757     
           3           2 -0.70710678118654735     
           4           4   1.0000000000000000     
 3
 none
           8           8
          20
           1           1 -0.95891527927997711     
           1           4 -0.28369259271860398     
           1           6   3.8857805861880479E-015
           2           1  0.16378999477318890     
           2           4 -0.55362999462232787     
           2           6  0.81649658092773403     
           3           7   1.0000000000000000     
           4           2  0.23163403198926266     
           4           3  0.78295104693141115     
           4           5  0.57735026918968713     
           5           2  0.95891527927997666     
           5           3 -0.28369259271860470     
           5           5  -2.2398749521812533E-014
           6           2  0.16378999477318915     
           6           3  0.55362999462240392     
           6           5 -0.81649658092768229     
           7           1  0.23163403198926225     
           7           4 -0.78295104693146500     
           7           6 -0.57735026918961441     
           8           8   1.0000000000000000     
 4
 none
          16          16
          70
           1           2 -0.98170897047567929     
           1           5 -0.19031106167385278     
           1          10  -5.4034333670653911E-003
           1          15   1.1901590823981678E-013
           2           1  0.70706775759305607     
           2           3  0.69417307017501939     
           2           7  0.13457024224437814     
           2           8   7.4287396190460542E-003
           2          11   3.8208043756508270E-003
           2          16   4.7986267737165633E-012
           3           1  -7.4287396188414487E-003
           3           3  0.12393673475705534     
           3           7 -0.63096935257638054     
           3           8  0.70706775759179497     
           3          11 -0.29413833801272582     
           3          16  -3.7832215398631019E-010
           4           2  0.17527301116966040     
           4           5 -0.89232541585413383     
           4          10 -0.41597442682966390     
           4          15   1.1532552690596276E-011
           5           1  -4.7271214720367993E-016
           5           3  -5.2568378532629356E-002
           5           7  0.28942792887475188     
           5           8  -2.1414189865787137E-012
           5          11 -0.64301480418458457     
           5          16 -0.70710678201045629     
           6           2   3.7171456936406888E-002
           6           5 -0.20465645117216744     
           6          10  0.45468012910726091     
           6          15  0.86602540377164627     
           7          12   1.0000000000000000     
           8           4  -6.4382852005220162E-002
           8           6  0.35447537152690700     
           8           9  0.78752908476390493     
           8          14 -0.49999999999946143     
           9           1  0.70706775759306029     
           9           3 -0.69417307017501506     
           9           7 -0.13457024224440095     
           9           8   7.4287396186350496E-003
           9          11  -3.8208043756672305E-003
           9          16  -4.8393095086751714E-012
          10           4  0.98170897047567973     
          10           6  0.19031106167385092     
          10           9  -5.4034333671141299E-003
          10          14  -9.7491459349896559E-016
          11           4  0.17527301116965688     
          11           6 -0.89232541585400893     
          11           9  0.41597442682993424     
          11          14   3.4245523083953344E-013
          12           1   7.4287396188401729E-003
          12           3  0.12393673475705203     
          12           7 -0.63096935257424602     
          12           8 -0.70706775759432128     
          12          11 -0.29413833801123362     
          12          16  -3.7452258655479298E-010
          13           4   3.7171456936424513E-002
          13           6 -0.20465645117221148     
          13           9 -0.45468012908228272     
          13          14 -0.86602540378474957     
          14           1   2.9719167393953833E-016
          14           3  -5.2568378532641159E-002
          14           7  0.28942792887560809     
          14           8   1.6583571904085694E-012
          14          11 -0.64301480599625949     
          14          16  0.70710678036263930     
          15           2   6.4382852005221147E-002
          15           5 -0.35447537152661623     
          15          10  0.78752908474962657     
          15          15 -0.50000000002215650     
          16          13   1.0000000000000000     
 5
 none
          32          20
         170
           1           1  0.94223952970010183     
           1           3 -0.33211671950647093     
           1           5   2.6108824469735934E-015
           1          10  -4.3383418790660176E-002
           1          13   3.5794732546519476E-014
           1          15   9.8972885661768439E-004
           1          17   3.9200274224964738E-011
           2           6 -0.98950575560892173     
           2          11  0.14440576698880866     
           2          20  -5.0167723116560092E-003
           3           1 -0.19337389083562759     
           3           3 -0.53897385496734806     
           3           5 -0.80792806626299041     
           3          10  -7.3802005974404949E-002
           3          13 -0.11790681501258081     
           3          15   4.3317565634465316E-004
           3          17  -4.0961773981196270E-003
           4           2  0.27347197902860226     
           4           4 -0.76222413545932843     
           4           8 -0.57129141436549669     
           4           9 -0.10437179777956819     
           4          14   8.3372708443132437E-002
           4          16   6.1260287852742817E-004
           4          18  -2.8964348400919993E-003
           5           6  0.13951980717318699     
           5          11  0.94582327691970580     
           5          20 -0.29308601805795542     
           6           2  -1.3465945879702521E-003
           6           4  0.10510361843611683     
           6           8   8.0551798228734789E-002
           6           9 -0.76960099572330110     
           6          14  0.54607132356491928     
           6          16  0.25162961957101654     
           6          18 -0.16921329070436886     
           7           1   9.5218616466035755E-004
           7           3   7.4319481323358194E-002
           7           5  0.11391744552862955     
           7          10 -0.54419008288205173     
           7          13 -0.77226147176809812     
           7          15  0.17792901028200336     
           7          17 -0.23930373145104680     
           8           1   1.2374812829748080E-003
           8           3   4.0121575755086639E-002
           8           5   1.6884682378943432E-013
           8          10 -0.30252458754401446     
           8          13  -7.8745320208828670E-013
           8          15 -0.93965208735692818     
           8          17  -2.6575369371260318E-008
           9           2   1.4688861769454305E-004
           9           4  -5.1729331180001212E-003
           9           8   1.8881314140510176E-002
           9           9   3.4909461253312450E-002
           9          14  0.14671342790784581     
           9          16  0.12131560486206142     
           9          18  0.47517014215846420     
          10           6  -3.2703395404852745E-002
          10          11 -0.25411511128056868     
          10          20 -0.82301883367124773     
          11           1   1.0386593765052596E-004
          11           3   3.6578160863644021E-003
          11           5  -2.6702210547885703E-002
          11          10  -2.4684716780076717E-002
          11          13  0.20748411962289498     
          11          15  -8.5783086934911587E-002
          11          17 -0.67199199387639985     
          13           7   1.6566736604451692E-002
          13          12 -0.12646205285447823     
          13          19  0.43516931650217250     
          14           2   3.4251894804595770E-016
          14           4  -4.3723908499902764E-015
          14           8   1.4347214757272990E-002
          14           9  -4.7678332636136300E-013
          14          14  0.10951935038605040     
          14          16  -2.5870314245869663E-010
          14          18  0.37686767605281679     
          15           6   8.2833683031658945E-003
          15          11   6.3231026434654614E-002
          15          20  0.21758465836911642     
          16           1   1.2903611615287260E-013
          16           3   4.5340674370932844E-012
          16           5   1.1714451760869630E-002
          16          10  -3.0803395804131911E-011
          16          13  -8.9422174862222939E-002
          16          15  -1.0169705876028612E-010
          16          17  0.30771115316659386     
          17           2 -0.94223952970010083     
          17           4 -0.33211671950647365     
          17           8   1.6620248417231223E-015
          17           9  -4.3383418790658636E-002
          17          14  -3.3199930259818824E-014
          17          16   9.8972885647705881E-004
          17          18  -6.0024880322873605E-013
          18           1  0.27347197902860287     
          18           3  0.76222413545932899     
          18           5 -0.57129141436549546     
          18          10  0.10437179777914250     
          18          13  -8.3372708443627999E-002
          18          15  -6.1260288179626476E-004
          18          17  -2.8964349450489868E-003
          19           2 -0.19337389083563264     
          19           4  0.53897385496734762     
          19           8 -0.80792806626298996     
          19           9   7.3802005973795437E-002
          19          14  0.11790681501276190     
          19          16  -4.3317566029756061E-004
          19          18  -4.0961774228199799E-003
          20           7  0.98950575560892207     
          20          12  0.14440576698880575     
          20          19   5.0167723115918106E-003
          21           1  -1.3465945879701099E-003
          21           3 -0.10510361843612409     
          21           5   8.0551798228730084E-002
          21          10  0.76960099571996610     
          21          13 -0.54607132353792043     
          21          15 -0.25162961915038795     
          21          17 -0.16921329248417738     
          22           7 -0.13951980717319395     
          22          12  0.94582327691976575     
          22          19  0.29308601805647916     
          23           2   9.5218616466480549E-004
          23           4  -7.4319481323475656E-002
          23           8  0.11391744552861501     
          23           9  0.54419008287827764     
          23          14  0.77226147173901205     
          23          16 -0.17792900967946343     
          23          18 -0.23930373176879849     
          24           2  -1.2374812829717256E-003
          24           4   4.0121575754867495E-002
          24           8   1.0934954679835329E-013
          24           9 -0.30252458754256012     
          24          14  -1.3892244020665573E-010
          24          16 -0.93965208726836402     
          24          18  -1.2745129365379585E-010
          25           7  -3.2703395405054847E-002
          25          12  0.25411511128213748     
          25          19 -0.82301883358827987     
          26           1  -1.4688861769438785E-004
          26           3  -5.1729331179904969E-003
          26           5  -1.8881314140942074E-002
          26          10   3.4909461253525238E-002
          26          13  0.14671342791454572     
          26          15  0.12131560617386584     
          26          17 -0.47517029866409805     
          27           2   1.0386593765309933E-004
          27           4  -3.6578160864494677E-003
          27           8  -2.6702210517871694E-002
          27           9   2.4684716777475586E-002
          27          14 -0.20748411942397563     