          39
          40
 FERMION
 C
           1
          16
           2
           2
   20.000000000000000        20.000000000000000     
           5
           1          11          20          24          35
           2
   20.000000000000000        19.000000000000000     
           5
           2          10          17          21          36
           2
   19.000000000000000        20.000000000000000     
           5
           3          12          19          26          33
           2
   19.000000000000000        19.000000000000000     
           5
           4           9          18          23          34
           2
   18.000000000000000        20.000000000000000     
           2
           5          40
           2
   21.000000000000000        20.000000000000000     
           2
           6          39
           2
   21.000000000000000        19.000000000000000     
           2
           7          37
           2
   18.000000000000000        19.000000000000000     
           2
           8          38
           2
   20.000000000000000        18.000000000000000     
           2
          13          29
           2
   19.000000000000000        18.000000000000000     
           2
          14          32
           2
   20.000000000000000        21.000000000000000     
           2
          15          30
           2
   19.000000000000000        21.000000000000000     
           2
          16          31
           2
   21.000000000000000        18.000000000000000     
           1
          22
           2
   21.000000000000000        21.000000000000000     
           1
          25
           2
   18.000000000000000        21.000000000000000     
           1
          27
           2
   18.000000000000000        18.000000000000000     
           1
          28
           4
 H
 bosonic
          40          40
         136
           1           1  -48.646860434746898     
           1          11   1.1221134244010500E-008
           1          20  0.36846637532545401     
           1          24  -1.8918200339612667E-013
           1          35   1.0478267142843833E-009
           2           2  -48.646860434746941     
           2          10  -1.0479144663122497E-008
           2          17  0.36846637531884774     
           2          21   1.4153123117921496E-011
           2          36  -1.0121539162355475E-009
           3           3  -48.646860434740432     
           3          12   1.1307324854215040E-008
           3          19  0.36846637533404980     
           3          26  -2.0710544390567520E-011
           3          33  -1.0429879182538571E-009
           4           4  -48.646860434734634     
           4           9  -1.0555327278893856E-008
           4          18  0.36846637532454452     
           4          23  -3.4541258742137870E-012
           4          34   9.9836672262654247E-010
           5           5  -47.889692206199165     
           5          40 -0.23481025318593116     
           6           6  -47.889692206189793     
           6          39  0.23481025320561649     
           7           7  -47.889692206172334     
           7          37  0.23481025321248025     
           8           8  -47.889692206157292     
           8          38 -0.23481025320986612     
           9           4  -1.0555325502537016E-008
           9           9  -47.889692205649418     
           9          18  -1.1002434519014059E-009
           9          23  -1.2268210058952178E-008
           9          34  0.23481025339148331     
          10           2  -1.0479144663122497E-008
          10          10  -47.889692205645545     
          10          17  -1.0789857896043031E-009
          10          21  -1.2305741370344236E-008
          10          36 -0.23481025341716588     
          11           1   1.1221130691296821E-008
          11          11  -47.889692205619781     
          11          20   1.2377761038351309E-009
          11          24   1.2366754120751722E-008
          11          35 -0.23481025341502537     
          12           3   1.1307324854215040E-008
          12          12  -47.889692205619788     
          12          19   1.2534915327933049E-009
          12          26   1.2329497631191622E-008
          12          33  0.23481025342034023     
          13          13  -47.889692205145813     
          13          29  0.23481025359865626     
          14          14  -47.889692205117420     
          14          32  0.23481025362145047     
          15          15  -47.889692205086526     
          15          30 -0.23481025361884988     
          16          16  -47.889692205070432     
          16          31 -0.23481025361245855     
          17           2  0.36846637531884419     
          17          10  -1.0789769078201061E-009
          17          17  -47.806099456944764     
          17          21  -2.5594282249130629E-010
          17          36   6.9428240934144014E-009
          18           4  0.36846637532454984     
          18           9  -1.1002452282582453E-009
          18          18  -47.806099456961718     
          18          23   1.0974154918130807E-010
          18          34  -6.5479408561941455E-009
          19           3  0.36846637533404980     
          19          12   1.2534950855069837E-009
          19          19  -47.806099456989600     
          19          26   1.9885604274350044E-010
          19          33   6.2561591462895194E-009
          20           1  0.36846637532544158     
          20          11   1.2377725511214521E-009
          20          20  -47.806099456937687     
          20          24  -8.0184747730527306E-011
          20          35  -6.5561485129705943E-009
          21           2   1.4149570404242695E-011
          21          10  -1.2305741328710873E-008
          21          17  -2.5593749342078809E-010
          21          21  -47.056439143794691     
          21          36   3.5750507831888712E-009
          22          22  -47.056439143819603     
          23           4  -3.4550140526334872E-012
          23           9  -1.2268213764321523E-008
          23          18   1.0974865460866567E-010
          23          23  -47.056439143791202     
          23          34  -3.5440613221915385E-009
          24           1  -1.9451107391432743E-013
          24          11   1.2366753232573302E-008
          24          20  -8.0184747730527306E-011
          24          24  -47.056439143799700     
          24          35  -3.5880799997833890E-009
          25          25  -47.056439143807133     
          26           3  -2.0711432568987220E-011
          26          12   1.2329495355234421E-008
          26          19   1.9885604274350044E-010
          26          26  -47.056439143758460     
          26          33   3.5596904868206991E-009
          27          27  -47.056439143798407     
          28          28  -47.056439143783003     
          29          13  0.23481025359865271     
          29          29  -46.924737158408902     
          30          15 -0.23481025361885699     
          30          30  -46.924737158339056     
          31          16 -0.23481025361246921     
          31          31  -46.924737158334850     
          32          14  0.23481025362144692     
          32          32  -46.924737158388794     
          33           3  -1.0429879182538571E-009
          33          12  0.23481025342033668     
          33          19   6.2561591462895194E-009
          33          26   3.5596910419322114E-009
          33          33  -46.924737157750265     
          34           4   9.9836583444812277E-010
          34           9  0.23481025339147799     
          34          18  -6.5479426325509849E-009
          34          23  -3.5440692047750133E-009
          34          34  -46.924737157734043     
          35           1   1.0478276024628030E-009
          35          11 -0.23481025341502537     
          35          20  -6.5561502893274337E-009
          35          24  -3.5880818594069552E-009
          35          35  -46.924737157694892     
          36           2  -1.0121539162355475E-009
          36          10 -0.23481025341716766     
          36          17   6.9428285343064999E-009
          36          21   3.5750439553172697E-009
          36          36  -46.924737157743884     
          37           7  0.23481025321248411     
          37          37  -46.924737157115963     
          38           8 -0.23481025320986249     
          38          38  -46.924737157106271     
          39           6  0.23481025320561255     
          39          39  -46.924737157058196     
          40           5 -0.23481025318594451     
          40          40  -46.924737157053755     
 C_l1_s1
 fermionic
          40          40
         106
           1           6  0.45556490355942036     
           1          39  -1.4141429967435405E-002
           2           7 -0.45556490355624008     
           2          37   1.4141429972440197E-002
           3           1 -0.74672035168690454     
           3          11 -0.32213304253822006     
           3          20 -0.32225397179613502     
           3          24   4.1825175718311693E-010
           3          35  -9.9995016779801521E-003
           4           2 -0.74672035169401407     
           4          10  0.32213304187175301     
           4          17 -0.32225397245581211     
           4          21   3.9349204252614077E-010
           4          36   9.9995016664430822E-003
           5           3  0.45556490355041873     
           5          12 -0.53963055555822859     
           5          19 -0.53242444278157286     
           5          26 -0.25853392988892515     
           5          33 -0.31352138934928048     
           8           4 -0.45556490354358370     
           8           9 -0.53963055446782549     
           8          18  0.53242444389181520     
           8          23  0.25853392973428924     
           8          34 -0.31352138934393259     
           9           2  0.32213304193277176     
           9          10 -0.38157639170525531     
           9          17 -0.37648094533307819     
           9          21  0.36562217818883402     
           9          36  0.22169308840406055     
          10           7 -0.53963055435203855     
          10          37 -0.31352138750053243     
          11           6 -0.53963055543593563     
          11          39 -0.31352138688177211     
          12           1 -0.32213304260020903     
          12          11 -0.38157639015355360     
          12          20  0.37648094525399678     
          12          24 -0.36562217822300230     
          12          35  0.22169308867926876     
          13          22  0.44779387324873321     
          14          13 -0.76315282710067678     
          14          29 -0.44338621108607235     
          15          25 -0.44779387327679060     
          16          15 -0.76315282706148824     
          16          30  0.44338621111233545     
          17           7  0.53242444400816369     
          17          37 -0.30690208021155280     
          18           2 -0.32225397237895476     
          18          10 -0.37648094550332573     
          18          17 -0.40819318197674176     
          18          21  -7.2595235345672469E-010
          18          36 -0.21701254284256896     
          19           1 -0.32225397172254477     
          19          11  0.37648094543547711     
          19          20 -0.40819318350289524     
          19          24  -1.9502860468682390E-010
          19          35  0.21701254251018742     
          20           6 -0.53242444290604574     
          20          39  0.30690208087288617     
          21           7  0.25853392959882610     
          21          37 -0.45582006482117776     
          23           2   4.1106715497986374E-010
          23          10  0.36562217803453745     
          23          17  -1.1473908487460097E-009
          23          21   6.7274160607706801E-008
          23          36  0.64462691850245546     
          24           6 -0.25853392977814593     
          24          39  0.45582006454103907     
          26           1   4.2874490180476714E-010
          26          11 -0.36562217810358277     
          26          20  -5.3387010842778951E-010
          26          24   6.7742030306419676E-008
          26          35 -0.64462691858464805     
          27          16 -0.44779387326805375     
          27          31 -0.78950351376950278     
          28          14  0.44779387322635394     
          28          32 -0.78950351379890027     
          29          22 -0.78950351379773187     
          30          25 -0.78950351378308881     
          31          15  0.44338621110588583     
          31          30  -4.8311134797166339E-002
          32          13 -0.44338621106413761     
          32          29  -4.8311134772123912E-002
          33           1   9.9995016751979107E-003
          33          11 -0.22169308874777258     
          33          20 -0.21701254228639202     
          33          24  0.64462691826670870     
          33          35   2.4155603045951136E-002
          34           2  -9.9995016554885532E-003
          34          10 -0.22169308850959149     
          34          17  0.21701254252668484     
          34          21 -0.64462691809613704     
          34          36   2.4155602986568350E-002
          35           6  0.31352138943725877     
          35          39   3.4161178249668675E-002
          36           7  0.31352138947185132     
          36          37   3.4161177867316740E-002
          38           4  -1.4141429991956394E-002
          38           9  0.31352138742514263     
          38          18  0.30690208026492499     
          38          23  0.45582006425499549     
          38          34   3.4161177290384447E-002
          40           3   1.4141429971939276E-002
          40          12  0.31352138681901004     
          40          19 -0.30690208093833865     
          40          26 -0.45582006409847448     
          40          33   3.4161177814279978E-002
 C_l1_s2
 fermionic
          40          40
         106
           1          15  0.45556490340606903     
           1          30   1.4141429814110762E-002
           2           1 -0.74672035202948117     
           2          11  0.32213302250615405     
           2          20 -0.32225399156733531     
           2          24  -4.1690726782392562E-010
           2          35   9.9995002754929146E-003
           3          16 -0.45556490340958067     
           3          31  -1.4141429817500412E-002
           4           3  0.74672035202849907     
           4          12 -0.32213302243486175     
           4          19  0.32225399164581375     
           4          26   4.0389969265392409E-010
           4          33   9.9995002880160777E-003
           5          27 -0.44779387298812895     
           6          25  0.44779387298373058     
           7           6 -0.76315282746678437     
           7          39 -0.44338621088529628     
           8           5  0.76315282747445445     
           8          40 -0.44338621089188784     
           9           3  0.32213302310808073     
           9          12 -0.38157643643355343     
           9          19 -0.37648094589126968     
           9          26  0.36562215450374008     
           9          33 -0.22169312262310892     
          10           1 -0.32213302317376846     
          10          11  0.38157643626678700     
          10          20  0.37648094587815450     
          10          24 -0.36562215455991659     
          10          35 -0.22169312279239503     
          11          15  0.53963052305156578     
          11          30 -0.31352140608536150     
          12          16 -0.53963052293053593     
          12          31  0.31352140615154167     
          13           2  0.45556490340649780     
          13          10 -0.53963052415846069     
          13          17 -0.53242447574539387     
          13          21 -0.25853389653207665     
          13          36  0.31352140345433221     
          14           4 -0.45556490340352485     
          14           9  0.53963052404692946     
          14          18  0.53242447584074903     
          14          23  0.25853389672326843     
          14          34  0.31352140360532649     
          17           1 -0.32225399090335871     
          17          11 -0.37648094751272126     
          17          20 -0.40819313822565823     
          17          24   1.2341223546757776E-009
          17          35 -0.21701252822315725     
          18           3  0.32225399096802992     
          18          12  0.37648094754494982     
          18          19  0.40819313804475610     
          18          26  -8.4915532396378687E-010
          18          33 -0.21701252853307543     
          19          16  0.53242447696611639     
          19          31  0.30690206123690800     
          20          15 -0.53242447686062921     
          20          30 -0.30690206129872333     
          21           1  -4.2196264139816874E-010
          21          11  0.36562215469748710     
          21          20   5.4109855117159678E-010
          21          24  -6.7570550449196076E-008
          21          35  0.64462692110215014     
          22           7  0.44779387297508266     
          22          37 -0.78950351436628430     
          23           3   4.0985143336809349E-010
          23          12 -0.36562215458776376     
          23          19  -8.0171677246819268E-011
          23          26   6.7447373557766310E-008
          23          33  0.64462692148650069     
          24          15 -0.25853389649939901     
          24          30 -0.45582006847493078     
          26          16  0.25853389666009763     
          26          31  0.45582006803199066     
          28           8 -0.44779387295294476     
          28          38 -0.78950351436836375     
          29           2  -1.4141429841369846E-002
          29          10 -0.31352140543861257     
          29          17  0.30690206193789205     
          29          21  0.45582006873968223     
          29          36   3.4161084307247340E-002
          32           4   1.4141429848000903E-002
          32           9  0.31352140549025925     
          32          18 -0.30690206186203600     
          32          23 -0.45582006817761789     
          32          34   3.4161084876491443E-002
          33          16 -0.31352140359781688     
          33          31   3.4161084343872009E-002
          34           3  -9.9995003093136664E-003
          34          12 -0.22169312198602806     
          34          19  0.21701252921162292     
          34          26 -0.64462692160921398     
          34          33  -2.4155531614658506E-002
          35          15 -0.31352140350752938     
          35          30   3.4161083940925784E-002
          36           1  -9.9995002982402187E-003
          36          11 -0.22169312217204268     
          36          20  0.21701252880556043     
          36          24 -0.64462692130782651     
          36          35   2.4155532130755539E-002
          37           6 -0.44338621087790603     
          37          39  -4.8311135012030999E-002
          38           5 -0.44338621085883051     
          38          40   4.8311134979839063E-002
          39          25 -0.78950351437441646     
          40          27 -0.78950351436235400     
 P
 sign
          40          40
         135
           1           1   1.0000000000000022     
           1          11  -1.9428902930940239E-016
           1          20   5.5511151231257827E-016
           1          24   6.9388939039072284E-017
           1          35  -2.7755575615628914E-016
           2           2  -1.0000000000000022     
           2          10   1.3877787807814457E-016
           2          17  -2.7755575615628914E-016
           2          21  -4.1633363423443370E-016
           2          36  -2.2204460492503131E-016
           3           3  -1.0000000000000027     
           3          12   2.7755575615628914E-017
           3          19  -9.7144514654701197E-016
           3          26   3.7470027081099033E-016
           3          33  -1.9428902930940239E-016
           4           4   1.0000000000000029     
           4           9  -2.4980018054066022E-016
           4          18   2.4980018054066022E-016
           4          23   9.7144514654701197E-017
           4          34   5.8286708792820718E-016
           5           5   1.0000000000000027     
           5          40  -4.0592529337857286E-016
           6           6  -1.0000000000000024     
           6          39   7.3725747729014302E-018
           7           7   1.0000000000000013     
           7          37  -2.8145888397723695E-016
           8           8  -1.0000000000000024     
           8          38  -1.2793585635328952E-016
           9           4  -2.4980018054066022E-016
           9           9   1.0000000000000016     
           9          18   2.7755575615628914E-017
           9          23   4.7271214720367993E-017
           9          34   8.3266726846886741E-017
          10           2   1.1102230246251565E-016
          10          10  -1.0000000000000022     
          10          17  -1.9428902930940239E-016
          10          21   3.7296554733501353E-017
          10          36  -1.3877787807814457E-016
          11           1  -1.6653345369377348E-016
          11          11   1.0000000000000013     
          11          20  -2.2204460492503131E-016
          11          24   1.0278236595162582E-016
          11          35   1.9428902930940239E-016
          12           3   5.5511151231257827E-017
          12          12  -1.0000000000000011     
          12          19   5.5511151231257827E-017
          12          26   1.3010426069826053E-018
          12          33   3.8857805861880479E-016
          13          13   1.0000000000000038     
          14          14  -1.0000000000000022     
          14          32  -1.6653345369377348E-016
          15          15  -1.0000000000000020     
          15          30   1.1102230246251565E-016
          16          16   1.0000000000000027     
          16          31  -2.2204460492503131E-016
          17           2  -3.0531133177191805E-016
          17          10  -2.4980018054066022E-016
          17          17  -1.0000000000000027     
          17          21  -5.5511151231257827E-016
          17          36   3.6082248300317588E-016
          18           4   1.6653345369377348E-016
          18           9   2.7755575615628914E-017
          18          18   1.0000000000000027     
          18          23  -1.1102230246251565E-016
          18          34   5.5511151231257827E-017
          19           3  -7.2164496600635175E-016
          19          12   5.5511151231257827E-017
          19          19  -1.0000000000000027     
          19          26   3.8857805861880479E-016
          19          33  -2.7755575615628914E-017
          20           1   6.6613381477509392E-016
          20          11  -2.2204460492503131E-016
          20          20   1.0000000000000016     
          20          24  -2.2204460492503131E-016
          20          35  -3.6082248300317588E-016
          21           2  -3.7470027081099033E-016
          21          10   4.3368086899420177E-018
          21          17  -3.8857805861880479E-016
          21          21  -1.0000000000000033     
          21          36   2.7061686225238191E-016
          22          22  -1.0000000000000027     
          23           4   1.8041124150158794E-016
          23           9  -3.0357660829594124E-017
          23          18  -5.5511151231257827E-017
          23          23   1.0000000000000024     
          23          34  -5.1781495757907692E-016
          24           1   4.1633363423443370E-017
          24          11   1.5439038936193583E-016
          24          20  -3.3306690738754696E-016
          24          24   1.0000000000000031     
          24          35  -2.5153490401663703E-017
          25          25   1.0000000000000018     
          26           3   3.4694469519536142E-016
          26          12   9.6277152916712794E-017
          26          19   2.7755575615628914E-016
          26          26  -1.0000000000000002     
          26          33  -4.5536491244391186E-017
          27          27  -1.0000000000000011     
          28          28   1.0000000000000027     
          29          13   1.1102230246251565E-016
          29          29   1.0000000000000038     
          30          15   1.1102230246251565E-016
          30          30  -1.0000000000000022     
          31          16  -1.1102230246251565E-016
          31          31   1.0000000000000016     
          32          14  -5.5511151231257827E-017
          32          32  -1.0000000000000024     
          33           3  -1.6653345369377348E-016
          33          12   2.2204460492503131E-016
          33          19  -5.5511151231257827E-017
          33          26   3.3393426912553537E-017
          33          33  -1.0000000000000024     
          34           4   4.4408920985006262E-016
          34           9   1.6653345369377348E-016
          34          18   1.3877787807814457E-016
          34          23  -7.1383871036445612E-016
          34          34   1.0000000000000040     
          35           1  -2.7755575615628914E-016
          35          11   8.3266726846886741E-017
          35          20  -3.0531133177191805E-016
          35          24  -2.2854981795994433E-016
          35          35   1.0000000000000040     
          36           2  -1.3877787807814457E-016
          36          10  -2.2204460492503131E-016
          36          17   3.0531133177191805E-016
          36          21   4.5883435939586548E-016
          36          36  -1.0000000000000040     
          37           7  -1.7173762412170390E-016
          37          37   1.0000000000000013     
          38           8  -2.3548871186385156E-016
          38          38  -1.0000000000000016     
          39           6   9.9746599868666408E-017
          39          39  -1.0000000000000007     
          40           5  -3.2612801348363973E-016
          40          40   1.0000000000000022     
          39
 1
 none
           4           4
           4
           1           1   1.0000000000000000     
           2           2   1.0000000000000000     
           3           3   1.0000000000000000     
           4           4   1.0000000000000000     
 2
 none
          16          16
          36
           1          11   1.0000000000000000     
           2           2 -0.70710678118654779     
           2          14  0.70710678118654735     
           3           3 -0.70710678118654757     
           3          12  0.70710678118654735     
           4           1  0.50000000000000011     
           4           9  0.49100002699462941     
           4          10 -0.50884081350780108     
           4          16  0.49999999999999212     
           5           2 -0.70710678118654735     
           5          14 -0.70710678118654779     
           6           6   1.0000000000000000     
           7           1  0.50000000000000022     
           7           9 -0.50884081350779753     
           7          10 -0.49100002699462181     
           7          16 -0.50000000000000311     
           8           5 -0.70710678118654735     
           8          15 -0.70710678118654768     
           9           3 -0.70710678118654735     
           9          12 -0.70710678118654757     
          10           1 -0.50000000000000033     
          10           9 -0.50884081350779309     
          10          10 -0.49100002699463285     
          10          16  0.49999999999999706     
          11           7   1.0000000000000000     
          12           4 -0.70710678118654835     
          12          13 -0.70710678118654680     
          13           1  0.50000000000000022     
          13           9 -0.49100002699462508     
          13          10  0.50884081350778976     
          13          16  0.50000000000000799     
          14           5  0.70710678118654768     
          14          15 -0.70710678118654735     
          15           4  0.70710678118654680     
          15          13 -0.70710678118654835     
          16           8   1.0000000000000000     
 3
 none
          64          44
         268
           1           1  0.87832410993627230     
           1           6 -0.28970288129927357     
           1           9 -0.35054773441883680     
           1          21  0.11238540349343544     
           1          28  -8.8174729301375682E-002
           1          37  -1.9634780919318889E-002
           2           2 -0.87832410993625443     
           2           5  0.22662837250454265     
           2          17 -0.39427281711432915     
           2          22   8.6578377043426386E-002
           2          33   3.6352162860418397E-002
           2          41 -0.10942344955014091     
           3           3 -0.87832410993626664     
           3          12  0.25994562736461757     
           3          19 -0.37314842134657583     
           3          23  0.12144786883373332     
           3          30  -7.7681156259754608E-002
           3          39   2.6152524160823198E-003
           4           4  0.87832410993623244     
           4          15 -0.40929520494392924     
           4          20 -0.19821430006275539     