          39
          40
 FERMION
 C
           1
          16
           2
           2
   19.000000000000000        20.000000000000000     
           5
           1          11          17          22          34
           2
   20.000000000000000        19.000000000000000     
           5
           2          12          18          21          35
           2
   20.000000000000000        20.000000000000000     
           5
           3           9          19          25          33
           2
   19.000000000000000        19.000000000000000     
           5
           4          10          20          26          36
           2
   18.000000000000000        20.000000000000000     
           2
           5          37
           2
   21.000000000000000        19.000000000000000     
           2
           6          39
           2
   18.000000000000000        19.000000000000000     
           2
           7          38
           2
   21.000000000000000        20.000000000000000     
           2
           8          40
           2
   19.000000000000000        21.000000000000000     
           2
          13          30
           2
   20.000000000000000        21.000000000000000     
           2
          14          32
           2
   20.000000000000000        18.000000000000000     
           2
          15          31
           2
   19.000000000000000        18.000000000000000     
           2
          16          29
           2
   18.000000000000000        21.000000000000000     
           1
          23
           2
   21.000000000000000        18.000000000000000     
           1
          24
           2
   18.000000000000000        18.000000000000000     
           1
          27
           2
   21.000000000000000        21.000000000000000     
           1
          28
           4
 H
 bosonic
          40          40
           5
           1  -48.646860434778944     
          11   1.7920440079768433E-008
          17  0.36846637529647075     
          22  -1.6761958082459472E-011
          34   1.6872857016167307E-009
           5
           2  -48.646860434758317     
          12  -1.8019762135231317E-008
          18  0.36846637531925108     
          21  -3.6435116304195131E-012
          35  -1.6758756428637452E-009
           5
           3  -48.646860434728211     
           9  -1.7728496519778258E-008
          19 -0.36846637533429838     
          25  -1.1538974636904342E-011
          33  -1.6401155537859591E-009
           5
           4  -48.646860434728254     
          10   1.8176451511505613E-008
          20  0.36846637533343024     
          26  -1.6847842565503868E-012
          36   1.7190261597283318E-009
           2
           5  -47.889692206534704     
          37 -0.23481025300481895     
           2
           6  -47.889692206504215     
          39 -0.23481025302749897     
           2
           7  -47.889692206503177     
          38  0.23481025318625415     
           2
           8  -47.889692206504485     
          40  0.23481025314064044     
           5
           3  -1.7728499312683055E-008
           9  -47.889692205656708     
          19   1.9037638271379720E-009
          25   2.0363007002810463E-008
          33 -0.23481025330794272     
           5
           4   1.8176453845863849E-008
          10  -47.889692205703660     
          20   1.9812096813241729E-009
          26  -2.0233207385113131E-008
          36 -0.23481025333333097     
           5
           1   1.7920440029637765E-008
          11  -47.889692205666535     
          17   1.9319724680893372E-009
          22  -2.0156936633708433E-008
          34 -0.23481025349232187     
           5
           2  -1.8019755935292930E-008
          12  -47.889692205616186     
          18  -1.9421990197880163E-009
          21  -2.0279041709758694E-008
          35 -0.23481025347105031     
           2
          13  -47.889692204831832     
          30 -0.23481025365452174     
           2
          14  -47.889692204779742     
          32 -0.23481025377281395     
           2
          15  -47.889692204776523     
          31 -0.23481025364420655     
           2
          16  -47.889692204782669     
          29 -0.23481025378076809     
           5
           1  0.36846637529647019     
          11   1.9319694606913344E-009
          17  -47.806099456945802     
          22   1.1990463420007089E-010
          34  -1.0880141688809243E-008
           5
           2  0.36846637531923965     
          12  -1.9421956776723340E-009
          18  -47.806099457004521     
          21   8.6559172351809915E-011
          35   1.0703798881416133E-008
           5
           3 -0.36846637533429993     
           9   1.9037589421566636E-009
          19  -47.806099456997799     
          25   7.0566191778809184E-011
          33  -1.0523988375199522E-008
           5
           4  0.36846637533345178     
          10   1.9812099596991687E-009
          20  -47.806099457019293     
          26  -1.6085299758827887E-011
          36  -1.1012105424622007E-008
           5
           2  -3.6412725423157241E-012
          12  -2.0279042875492870E-008
          18   8.6558404540326001E-011
          21  -47.056439143803139     
          35   5.8254452650619015E-009
           5
           1  -1.6757367340537515E-011
          11  -2.0156938479454212E-008
          17   1.1990635386828814E-010
          22  -47.056439143796609     
          34   5.8595393259697204E-009
           1
          23  -47.056439143833607     
           1
          24  -47.056439143787763     
           5
           3  -1.1537496652502810E-011
           9   2.0363007113832765E-008
          19   7.0564831755604018E-011
          25  -47.056439143862661     
          33  -5.8699212157620195E-009
           5
           4  -1.6817935932778028E-012
          10  -2.0233202560411468E-008
          20  -1.6090406784741162E-011
          26  -47.056439143876119     
          36   5.8071055638161828E-009
           1
          27  -47.056439143893044     
           1
          28  -47.056439143825799     
           2
          16 -0.23481025378076748     
          29  -46.924737158835917     
           2
          13 -0.23481025365452804     
          30  -46.924737158793242     
           2
          15 -0.23481025364420111     
          31  -46.924737158750872     
           2
          14 -0.23481025377281167     
          32  -46.924737158779124     
           5
           3  -1.6401077961025745E-009
           9 -0.23481025330793462     
          19  -1.0523987653554556E-008
          25  -5.8699174410037358E-009
          33  -46.924737157688924     
           5
           1   1.6872840813907214E-009
          11 -0.23481025349231605     
          17  -1.0880146121582566E-008
          22   5.8595377994130615E-009
          34  -46.924737157716365     
           5
           2  -1.6758727239351015E-009
          12 -0.23481025347104811     
          18   1.0703795689281978E-008
          21   5.8254465140628042E-009
          35  -46.924737157753007     
           5
           4   1.7190248864250108E-009
          10 -0.23481025333333472     
          20  -1.1012106214607279E-008
          26   5.8070975966721515E-009
          36  -46.924737157662292     
           2
           5 -0.23481025300481728     
          37  -46.924737156682632     
           2
           7  0.23481025318624635     
          38  -46.924737156709575     
           2
           6 -0.23481025302749559     
          39  -46.924737156644639     
           2
           8  0.23481025314064660     
          40  -46.924737156662623     
 C_l1_s1
 fermionic
          40          40
           5
           3 -0.74672035157467376     
           9  0.32213304834346601     
          19  0.32225396604956019     
          25  -6.9005716879554438E-010
          33   9.9995020861332745E-003
           2
           6 -0.45556490361891760     
          39  -1.4141430015005381E-002
           2
           8  0.45556490358850776     
          40  -1.4141430005660658E-002
           5
           2  0.74672035156791827     
          12 -0.32213304859215375     
          18  0.32225396584117000     
          21  -6.8707332997754249E-010
          35  -9.9995020850932714E-003
           5
           1  0.45556490362332552     
          11 -0.53963056506855167     
          17 -0.53242443275429441     
          22  0.25853394030060428     
          34  0.31352138497411852     
           0
           5
           4  0.45556490360349261     
          10 -0.53963056544067245     
          20 -0.53242443236455705     
          26  0.25853394039927846     
          36  0.31352138508352395     
           0
           2
           8  0.53963056478772475     
          40  0.31352138129396273     
           5
           2  0.32213304875983712     
          12 -0.38157637586704896     
          18 -0.37648094476722288     
          21  0.36562218578019678     
          35  0.22169307783941131     
           5
           3 -0.32213304850391700     
           9  0.38157637646001646     
          19 -0.37648094475905791     
          25  0.36562218583731615     
          33 -0.22169307762395329     
           2
           6 -0.53963056521413211     
          39  0.31352138108677274     
           2
          14 -0.76315282693116959     
          32  0.44338621114948562     
           1
          28  0.44779387333086995     
           1
          24 -0.44779387341369969     
           2
          15  0.76315282689794006     
          31 -0.44338621122557731     
           5
           3 -0.32225396593207928     
           9 -0.37648094517323005     
          19  0.40819319691451228     
          25   1.2905696008397305E-009
          33 -0.21701254657789340     
           2
           6  0.53242443259115102     
          39  0.30690208679202702     
           2
           8  0.53242443304755449     
          40 -0.30690208653854462     
           5
           2  0.32225396565083536     
          12  0.37648094511129132     
          18  0.40819319747120364     
          21   9.2751713961442961E-010
          35  0.21701254679689766     
           2
           6  0.25853394054744405     
          39  0.45582006300610789     
           5
           3  -6.6617253439938892E-010
           9 -0.36562218571423910     
          19  -1.0923718344810207E-009
          25   1.1119720615820894E-007
          33 -0.64462691728276211     
           2
          13 -0.44779387339353460     
          30 -0.78950351358140347     
           0
           2
           8  0.25853394066856394     
          40 -0.45582006302639860     
           5
           2   6.6983784668698125E-010
          12  0.36562218571518784     
          18  -9.3581060767919562E-010
          21   1.1102434803542810E-007
          35  0.64462691737447830     
           2
          16  0.44779387337551774     
          29  0.78950351356601289     
           0
           2
          15 -0.44338621118648347     
          31   4.8311134757943776E-002
           2
          14  0.44338621120415705     
          32  -4.8311134755579882E-002
           1
          24 -0.78950351356020654     
           1
          28  0.78950351361088389     
           2
           8 -0.31352138450602218     
          40  -3.4161207525872664E-002
           5
           3  -9.9995020967246061E-003
           9 -0.22169307770233693     
          19 -0.21701254720462995     
          25  0.64462691744096234     
          33   2.4155626546925643E-002
           2
           6  0.31352138478981545     
          39  -3.4161207891118046E-002
           5
           2   9.9995021197560492E-003
          12  0.22169307771764959     
          18 -0.21701254729985253     
          21  0.64462691744647727     
          35  -2.4155625613503380E-002
           5
           1   1.4141430025124959E-002
          11  0.31352138116891409     
          17 -0.30690208669750429     
          22  0.45582006328217006     
          34  -3.4161207860685695E-002
           5
           4  -1.4141429993236495E-002
          10 -0.31352138093503418     
          20  0.30690208696550714     
          26 -0.45582006316700641     
          36   3.4161208486676996E-002
           0
           0
 C_l1_s2
 fermionic
          40          40
           2
          13  0.45556490337617656     
          30   1.4141429779940934E-002
           5
           3  0.74672035213695132     
           9  0.32213301672643335     
          19 -0.32225399726419834     
          25  -7.0943888562163479E-010
          33   9.9994998801681886E-003
           2
          14 -0.45556490335261618     
          32  -1.4141429772704136E-002
           5
           1  0.74672035213761168     
          11 -0.32213301653246523     
          17  0.32225399748945016     
          22  -6.8113230653604910E-010
          34  -9.9994998235583572E-003
           1
          23  0.44779387292298306     
           2
           8  0.76315282758370495     
          40  0.44338621080366614     
           2
           5 -0.76315282758799963     
          37  0.44338621084179142     
           1
          28  0.44779387287999034     
           2
          14  0.53963051368413395     
          32 -0.31352141163840463     
           5
           1 -0.32213301629866065     
          11  0.38157645127232681     
          17  0.37648094744463362     
          22  0.36562214716289393     
          34 -0.22169313298721022     
           2
          13  0.53963051339902157     
          30 -0.31352141184298976     
           5
           3  0.32213301642979897     
           9  0.38157645089216513     
          19  0.37648094747567384     
          25 -0.36562214682784827     
          33 -0.22169313335177093     
           0
           0
           5
           2  0.45556490336350541     
          12 -0.53963051323893230     
          18 -0.53242448714310353     
          21 -0.25853388597419702     
          35  0.31352140815190926     
           5
           4 -0.45556490333660687     
          10 -0.53963051299795328     
          20  0.53242448739648518     
          26 -0.25853388595523474     
          36  0.31352140795356165     
           2
          13 -0.53242448698451939     
          30 -0.30690205544621663     
           5
           3  0.32225399757576312     
           9 -0.37648094680746724     
          19 -0.40819312381546147     
          25   1.0726137955260895E-009
          33 -0.21701252474192295     
           2
          14 -0.53242448668866404     
          32 -0.30690205563717465     
           5
           1  0.32225399766959834     
          11  0.37648094685217592     
          17  0.40819312344653652     
          22   8.1920048641816075E-010
          34  0.21701252435821822     
           5
           3   6.8091981678770550E-010
           9  0.36562214696042472     
          19   1.2167481189262475E-009
          25  -1.1153850079312355E-007
          33  0.64462692243032527     
           2
          13  0.25853388602391408     
          30  0.45582006974282124     
           0
           2
           6 -0.44779387291894590     
          39 -0.78950351453423884     
           2
          14 -0.25853388575396125     
          32 -0.45582006954998899     
           5
           1  -6.6502937011243402E-010
          11  0.36562214701115731     
          17   1.0575348549293557E-009
          22   1.1069063068046281E-007
          34  0.64462692235321728     
           2
           7  0.44779387286516842     
          38 -0.78950351457214463     
           0
           5
           4  -1.4141429747721493E-002
          10  0.31352141202913064     
          20  0.30690205523470915     
          26 -0.45582006960785326     
          36  -3.4161053724215143E-002
           0
           5
           2   1.4141429767271538E-002
          12  0.31352141192039767     
          18 -0.30690205535367626     
          21 -0.45582006948076076     
          35  -3.4161054311812343E-002
           0
           2
          14 -0.31352140849297583     
          32   3.4161054674986466E-002
           2
          13 -0.31352140797101169     
          30   3.4161054343257932E-002
           5
           3   9.9994998408523706E-003
           9 -0.22169313344526373     
          19  0.21701252418749264     
          25 -0.64462692243564890     
          33   2.4155507878789669E-002
           5
           1  -9.9994998106643050E-003
          11 -0.22169313337290511     
          17  0.21701252386912565     
          22  0.64462692222003670     
          34   2.4155509791428994E-002
           1
          23  0.78950351452653755     
           2
           5 -0.44338621079015211     
          37   4.8311135072988266E-002
           2
           8 -0.44338621083811380     
          40  -4.8311135053088997E-002
           1
          28 -0.78950351454701506     
 P
 sign
          40          40
           5
           1  -1.0000000000000002     
          11   2.6728970840755381E-016
          17  -1.8580207409583835E-016
          22  -1.7758497033095862E-016
          34  -1.7626362356306971E-016
           5
           2  -1.0000000000000009     
          12   8.8557163696138866E-018
          18  -4.0610706416651446E-016
          21   4.6860633713719716E-017
          35   1.4600245655604308E-016
           5
           3   1.0000000000000013     
           9   1.0573681687164882E-016
          19  -3.5401911437082934E-016
          25  -1.3248950547772864E-016
          33   3.6917083973131426E-017
           5
           4   1.0000000000000020     
          10  -3.4184702530204179E-016
          20   1.7406865879254774E-016
          26   3.2634485391813683E-017
          36   1.7451980733793480E-016
           2
           5   1.0000000000000018     
          37  -5.6725457664441592E-016
           2
           6   1.0000000000000011     
          39   8.5001450322863548E-017
           2
           7  -1.0000000000000018     
          38  -1.8301332671555315E-016
           2
           8  -1.0000000000000011     
          40   5.1282762758564360E-017
           5
           3   1.3251661053204078E-016
           9  0.99999999999999933     
          19  -5.0090140368830305E-017
          25   7.4593109467002705E-017
          33   1.2143064331837650E-016
           5
           4  -2.1325129595807692E-016
          10   1.0000000000000004     
          20   3.4499035854962484E-016
          26  -1.4608556699433975E-016
          36  -2.0763993166015496E-016
           5
           1   2.8712898355516317E-016
          11  -1.0000000000000009     
          17  -1.7218878208273278E-016
          22  -4.2067044292437572E-017
          34  -1.4658413372004020E-016
           5
           2   7.3897349505561274E-018
          12  -1.0000000000000011     
          18   4.8529317202374363E-017
          21   4.4235448637408581E-017
          35  -5.5099154405713335E-016
           2
          13   1.0000000000000004     
          30  -4.8572257327350599E-017
           2
          14  -1.0000000000000009     
          32  -1.4289784633358948E-016
           2
          15   1.0000000000000002     
          31   1.1362438767648086E-016
           2
          16  -1.0000000000000007     
          29  -5.8286708792820718E-016
           5
           1  -2.4261426802733560E-016
          11  -1.6931012161218435E-016
          17  -1.0000000000000007     
          22   3.0261075369712705E-017
          34   1.3863351530585459E-016
           5
           2  -3.3650128470182213E-016
          12   6.2370423168937273E-017
          18  -1.0000000000000002     
          21  -7.3336271576131867E-017
          35  -4.0192704412987966E-018
           5
           3  -4.3559177532320748E-016
           9  -3.0791341698588326E-017
          19  0.99999999999999956     
          25  -5.4643789493269423E-016
          33   1.2056328158038809E-016
           5
           4   1.2370746788059606E-016
          10   3.6813084627836544E-016
          20   1.0000000000000011     
          26  -1.0408340855860843E-017
          36  -1.2803268032553069E-016
           5
           2   4.0970066463621306E-017
          12   3.6862873864507151E-017
          18  -2.0328046373010782E-016
          21 -0.99999999999999900     
          35  -3.1225022567582528E-017
           5
           1  -1.9445061205666976E-016
          11  -2.2551405187698492E-017
          17   1.0456600808769780E-017
          22  -1.0000000000000004     
          34   2.0513105103425744E-016
           1
          23  -1.0000000000000011     
           1
          24  -1.0000000000000013     
           5
           3  -2.0139055353918245E-016
           9   3.9898639947466563E-017
          19  -4.7444687067965674E-016
          25   1.0000000000000004     
          33   4.5102810375396984E-017
           5
           4   7.8604657505199071E-017
          10  -1.3687774381206341E-016
          20  -5.7245874707234634E-017
          26  0.99999999999999922     
          36  -8.7452599063275595E-018
           1
          27   1.0000000000000016     
           1
          28   1.0000000000000004     
           2
          16  -4.9005938196344800E-016
          29  -1.0000000000000022     
           2
          13  -1.3877787807814457E-016
          30   1.0000000000000018     
           2
          15   1.3617579286417936E-016
          31   1.0000000000000004     
           2
          14  -2.2681509448396753E-016
          32  -1.0000000000000004     
           5
           3   8.5326710974609199E-017
           9   8.6736173798840355E-017
          19   1.1535911115245767E-016
          25   1.3183898417423734E-016
          33  0.99999999999999789     
           5
           1  -2.6578154021493055E-016
          11  -1.5785983631388945E-016
          17   7.4030194836337499E-017
          22   1.7260498585969231E-016
          34  -1.0000000000000004     
           5
           2   1.3935050293173538E-016
          12  -4.5818383809237417E-016
          18  -8.2032282681980209E-017
          21  -5.7679555576228836E-017
          35  -1.0000000000000000     
           5
           4   2.7396215446087256E-016
          10  -3.5162198014269332E-016
          20  -1.8830442245212947E-016
          26  -3.6348374140944068E-017
          36   1.0000000000000020     
           2
           5  -6.0455113137791727E-016
          37   1.0000000000000009     
           2
           7  -8.6736173798840355E-019
          38  -1.0000000000000004     
           2
           6   3.0010716134398763E-016
          39   1.0000000000000016     
           2
           8   1.3259792569497719E-016
          40  -1.0000000000000011     
          39
 1
 none
           4           4
           1
           1   1.0000000000000000     
           1
           2   1.0000000000000000     
           1
           3   1.0000000000000000     
           1
           4   1.0000000000000000     
 2
 none
          16          16
           1
           9   1.0000000000000000     
           2
           4 -0.70710678118654791     
          14  0.70710678118654713     
           2
           5 -0.70710678118654802     
          15  0.70710678118654702     
           4
           1  0.50000000000000000     
           6   7.9354417600083993E-002
          11 -0.70263993368393995     
          16  0.49999999999998018     
           2
           4 -0.70710678118654713     
          14 -0.70710678118654791     
           1
           8   1.0000000000000000     
           4
           1  0.49999999999999989     
           6 -0.70263993368392397     
          11  -7.9354417600071323E-002
          16 -0.50000000000000466     
           2
           3 -0.70710678118654791     
          12 -0.70710678118654702     
           2
           5 -0.70710678118654702     
          15 -0.70710678118654802     
           4
           1 -0.50000000000000000     
           6 -0.70263993368392708     
          11  -7.9354417600099814E-002
          16  0.49999999999999545     
           1
           7   1.0000000000000000     
           2
           2 -0.70710678118654779     
          13 -0.70710678118654735     
           4
           1  0.50000000000000044     
           6  -7.9354417600087171E-002
          11  0.70263993368391098     
          16  0.50000000000001998     
           2
           3  0.70710678118654702     
          12 -0.70710678118654791     
           2
           2  0.70710678118654735     
          13 -0.70710678118654779     
           1
          10   1.0000000000000000     
 3
 none
          64          44
           6
           4  0.87832410993625221     
           7 -0.39611695940080355     
          20  0.22338940891234857     
          21   9.6186309641692197E-002
          27  -9.7399458575354314E-002
          42   4.5302601853206476E-002
           6
           1  0.32156762394505195     
           6  0.80631934841825237     
          11  0.18767596822094462     
          22 -0.23407470362868410     
          29  -8.1799395671584188E-002
          44  0.36386505036712685     
           6
           3  0.32156762394498550     
          13 -0.81884997275859539     
          19  0.12189291527887061     
          26   6.1910507830143548E-002
          36  0.32503297035562145     
          41  0.29051771045374791     
           2
          17 -0.93718947387162610     
          39  0.34311911615679358     
           2
           8 -0.93718947387168905     
          37  0.34311911615641122     
           6
           4  -9.3424533437522390E-003
           7 -0.19680889453709657     
          20 -0.28044225994557737     
          21 -0.18281241492043798     
          27  0.26045939050776129     
          42  0.81474091569238527     
           2
          10  0.34311911615528462     
          38  0.87437894773755354     
           2
          14  0.34311911615471824     
          28  0.87437894775236580     
           1
          35   1.0000000000000000     
           6
           2  0.11773072787125313     
           5  0.31425304081911665     
          15  0.28506908800823783     
          23  0.65913602761005796     
          25  0.41009894423603649     
          40  -9.7973400790760001E-002
           6
           4   8.2722310824041009E-002
           7  0.24075905533819705     
          20 -0.17998300561981445     
          21 -0.34596583739474657     
          27 -0.80939951427819845     
          42  0.17543230641939522     
           6
           3  -2.1551492210343845E-002
          13   1.8901688941284456E-002
          19 -0.12852812532479357     
          26   2.6822369573008958E-002
          36 -0.14245080736982216     
          41  0.41577423061592594     
           6
           1  -2.1551492210407031E-002
           6  -8.4518360159546481E-003
          11 -0.12963533203805810     
          22  -6.3977373843267848E-002
          29  0.35778182349713994     
          44  0.24855370706836441     
           2
          17  -6.2810526128840749E-002
          39 -0.34311911614598034     
           2
           8  -6.2810526128496913E-002
          37 -0.34311911614840923     
           6
           4   3.9451621924687999E-003
           7   2.6547795640189536E-002
          20  -1.4971579063427189E-002
          21   9.6186309635047360E-002
          27  -9.7399458575753634E-002
          42   4.5302601850994426E-002
           6
           3 -0.87832410993627730     
          13 -0.21600075434467056     
          19  0.40019388758703894     
          26   1.7410040888995993E-002
          36   3.5823958562926431E-002
          41  0.13857965542061157     
           6
           2 -0.32156762394507910     
           5 -0.81276281597450828     
          15  0.15744766003686822     
          23  0.11188187550864474     
          25  0.35098296769959725     
          40  0.24119138708952015     
           2
          18 -0.93718947387178875     
          24 -0.34311911615592872     
           2
          14 -0.93718947387217244     
          28  0.34311911615604523     
           6
           4 -0.32156762394503929     
           7 -0.75773264344235214     
          20 -0.33348823329102595     
          21  0.30629345070169040     
          27 -0.29481636610256912     
          42 -0.11466261475790046     
           6
           3  -8.2722310824062270E-002
          13  0.17548458570727854     
          19 -0.24405729904561416     
          26 -0.75136251105694662     
          36  0.26840147191143421     
          41  0.41111002830099108     
           6
           1  0.11773072787133333     
           6  0.17068799578195981     
          11  0.38843914156337400     
          22  0.70157535991632003     
          29 -0.31134377893702070     
          44 -0.15197795862468277     
           1
          33   1.0000000000000000     
           2
          17  0.34311911615595436     
          39  0.87437894774690350     
           2
          16  0.34311911615516510     
          34  0.87437894774106950     
           6
           3  -9.3424533438447605E-003
          13 -0.28404588609812415     
          19 -0.19157123146322680     
          26 -0.14848561214500108     
          36 -0.81741924785267717     
          41  0.27356905727396447     
           2
          18   6.2810526128609934E-002
          24 -0.34311911615211155     
           6
           2  -2.1551492210314677E-002
           5  -6.0581309445642079E-002
          15 -0.11492022359165134     
          23  -2.8868489588303368E-002
          25 -0.37028361711576852     
          40  0.23650906133812283     
           2