          39
          40
 FERMION
 C
           1
          16
           2
           2
   20.000000000000000        19.000000000000000     
           5
           1          11          17          22          34
           2
   19.000000000000000        20.000000000000000     
           5
           2          12          18          21          35
           2
   19.000000000000000        19.000000000000000     
           5
           3           9          19          25          33
           2
   20.000000000000000        20.000000000000000     
           5
           4          10          20          26          36
           2
   21.000000000000000        19.000000000000000     
           2
           5          37
           2
   18.000000000000000        20.000000000000000     
           2
           6          39
           2
   21.000000000000000        20.000000000000000     
           2
           7          38
           2
   18.000000000000000        19.000000000000000     
           2
           8          40
           2
   20.000000000000000        18.000000000000000     
           2
          13          30
           2
   19.000000000000000        18.000000000000000     
           2
          14          32
           2
   19.000000000000000        21.000000000000000     
           2
          15          31
           2
   20.000000000000000        21.000000000000000     
           2
          16          29
           2
   21.000000000000000        18.000000000000000     
           1
          23
           2
   18.000000000000000        21.000000000000000     
           1
          24
           2
   21.000000000000000        21.000000000000000     
           1
          27
           2
   18.000000000000000        18.000000000000000     
           1
          28
           4
 H
 bosonic
          40          40
           5
           1  -48.646860434774894     
          11  -1.7916619618159932E-008
          17  0.36846637529577342     
          22  -6.8251899137011574E-012
          34   1.6923273656675509E-009
           5
           2  -48.646860434762999     
          12  -1.8021377848797126E-008
          18 -0.36846637531120158     
          21   9.9659349731820208E-012
          35   1.6727541586521036E-009
           5
           3  -48.646860434734315     
           9   1.7720762910566384E-008
          19  0.36846637532963994     
          25  -6.7592806351663327E-012
          33  -1.6426574221435474E-009
           5
           4  -48.646860434719564     
          10   1.8184819184173602E-008
          20  0.36846637534860854     
          26   1.6393800475011934E-012
          36  -1.7225925603478753E-009
           2
           5  -47.889692206532921     
          37 -0.23481025305775072     
           2
           6  -47.889692206537212     
          39 -0.23481025304270520     
           2
           7  -47.889692206496925     
          38 -0.23481025312785497     
           2
           8  -47.889692206534022     
          40 -0.23481025311310602     
           5
           3   1.7720771399493872E-008
           9  -47.889692205671111     
          19   1.9006574711645694E-009
          25  -2.0373407808027544E-008
          33  0.23481025334399655     
           5
           4   1.8184812020515247E-008
          10  -47.889692205692292     
          20   1.9742879162569280E-009
          26  -2.0239482464989855E-008
          36  0.23481025335857825     
           5
           1  -1.7916616724627042E-008
          11  -47.889692205663842     
          17  -1.9259354998091002E-009
          22   2.0162732733419730E-008
          34  0.23481025346212572     
           5
           2  -1.8021375160190659E-008
          12  -47.889692205619760     
          18   1.9342804057666861E-009
          21   2.0259957975166110E-008
          35  0.23481025345628551     
           2
          13  -47.889692204839967     
          30 -0.23481025365130487     
           2
          14  -47.889692204781959     
          32 -0.23481025371493208     
           2
          15  -47.889692204775081     
          31  0.23481025367849120     
           2
          16  -47.889692204772444     
          29  0.23481025374270620     
           5
           1  0.36846637529576681     
          11  -1.9259376896647949E-009
          17  -47.806099456945248     
          22   1.2349264735577507E-010
          34  -1.0851561139252413E-008
           5
           2 -0.36846637531120652     
          12   1.9342768814542177E-009
          18  -47.806099457007598     
          21   8.4310060968205343E-011
          35   1.0732115568321173E-008
           5
           3  0.36846637532963711     
           9   1.9006538025577947E-009
          19  -47.806099456986928     
          25  -8.3840487156007577E-011
          33   1.0498377325964922E-008
           5
           4  0.36846637534860405     
          10   1.9742932134916988E-009
          20  -47.806099457021489     
          26  -5.4185993910796116E-012
          36   1.1010492105278652E-008
           5
           2   9.9705689006000365E-012
          12   2.0259954214285614E-008
          18   8.4304261866306986E-011
          21  -47.056439143839668     
          35   5.8374841349628781E-009
           5
           1  -6.8271319607974060E-012
          11   2.0162730207662349E-008
          17   1.2348734346319729E-010
          22  -47.056439143871586     
          34   5.8528924484768652E-009
           1
          23  -47.056439143839064     
           1
          24  -47.056439143806763     
           5
           3  -6.7630721171804094E-012
           9  -2.0373413442409394E-008
          19  -8.3837068565998003E-011
          25  -47.056439143849104     
          33  -5.8798574342766585E-009
           5
           4   1.6415964972136366E-012
          10  -2.0239482173556311E-008
          20  -5.4197289497854429E-012
          26  -47.056439143875934     
          36  -5.8470156216738900E-009
           1
          27  -47.056439143831909     
           1
          28  -47.056439143813698     
           2
          16  0.23481025374270836     
          29  -46.924737158806742     
           2
          13 -0.23481025365131045     
          30  -46.924737158759299     
           2
          15  0.23481025367848027     
          31  -46.924737158767783     
           2
          14 -0.23481025371493194     
          32  -46.924737158793285     
           5
           3  -1.6426627120742808E-009
           9  0.23481025334399602     
          19   1.0498374629171414E-008
          25  -5.8798594604336785E-009
          33  -46.924737157731450     
           5
           1   1.6923346036786212E-009
          11  0.23481025346212497     
          17  -1.0851562197842938E-008
          22   5.8528829283144290E-009
          34  -46.924737157753526     
           5
           2   1.6727491824613103E-009
          12  0.23481025345628342     
          18   1.0732116855392815E-008
          21   5.8374720612874853E-009
          35  -46.924737157754628     
           5
           4  -1.7225939038841795E-009
          10  0.23481025335857772     
          20   1.1010490123598860E-008
          26  -5.8470238095686966E-009
          36  -46.924737157678017     
           2
           5 -0.23481025305776396     
          37  -46.924737156680109     
           2
           7 -0.23481025312785900     
          38  -46.924737156693929     
           2
           6 -0.23481025304271111     
          39  -46.924737156620260     
           2
           8 -0.23481025311310386     
          40  -46.924737156689460     
 C_l1_s1
 fermionic
          40          40
           2
           5 -0.45556490361836943     
          37  -1.4141430014633534E-002
           5
           4 -0.74672035157130812     
          10 -0.32213304875867471     
          20 -0.32225396564059677     
          26  -6.7322686861097482E-010
          36   9.9995021226474048E-003
           5
           1 -0.74672035157426198     
          11  0.32213304849445218     
          17 -0.32225396593324845     
          22  -6.6655814984821675E-010
          34  -9.9995020977625346E-003
           2
           7  0.45556490359526797     
          38   1.4141429999592010E-002
           0
           5
           2 -0.45556490362031138     
          12 -0.53963056522166952     
          18 -0.53242443259344019     
          21 -0.25853394054365780     
          35 -0.31352138477286301     
           0
           5
           3  0.45556490359092094     
           9 -0.53963056478480642     
          19 -0.53242443305385601     
          25  0.25853394066399432     
          33 -0.31352138450758976     
           5
           1 -0.32213304834394818     
          11  0.38157637646493658     
          17  0.37648094516410147     
          22  0.36562218571050431     
          34  0.22169307770108196     
           2
           7 -0.53963056545023136     
          38  0.31352138093151810     
           2
           5 -0.53963056505854423     
          37  0.31352138117328648     
           5
           4  0.32213304859603198     
          10  0.38157637586848020     
          20 -0.37648094511411062     
          26 -0.36562218570164640     
          36  0.22169307771414767     
           1
          23 -0.44779387338538340     
           2
          13 -0.76315282693295050     
          30  0.44338621120077837     
           2
          16 -0.76315282690074382     
          29 -0.44338621118969801     
           1
          27  0.44779387338130361     
           2
           5  0.53242443276971907     
          37  0.30690208668675267     
           5
           4  0.32225396583888366     
          10 -0.37648094476086658     
          20  0.40819319748391741     
          26  -9.4222744050589077E-010
          36  0.21701254728817962     
           5
           1 -0.32225396605316614     
          11 -0.37648094475982236     
          17 -0.40819319691107858     
          22   1.0927879684021571E-009
          34  0.21701254718581608     
           2
           7 -0.53242443236153825     
          38 -0.30690208696119647     
           5
           4  -6.9746473843665492E-010
          10  0.36562218577163325     
          20   9.2677505312045247E-010
          26   1.1105485790696701E-007
          36 -0.64462691745462186     
           2
           5 -0.25853394030010957     
          37 -0.45582006327893948     
           0
           2
          15  0.44779387340115084     
          31 -0.78950351356044879     
           5
           1  -6.9239501766575220E-010
          11 -0.36562218584993006     
          17   1.2901010798068394E-009
          22   1.1120136653251095E-007
          34  0.64462691744152578     
           2
           7  0.25853394040596095     
          38  0.45582006314561802     
           0
           2
          14 -0.44779387333210985     
          32 -0.78950351361813420     
           1
          27 -0.78950351354987147     
           1
          23 -0.78950351359279858     
           2
          16 -0.44338621121495408     
          29  -4.8311134728333177E-002
           2
          13  0.44338621115080656     
          30  -4.8311134762361402E-002
           5
           1   9.9995020812896889E-003
          11  0.22169307762084256     
          17 -0.21701254656475397     
          22 -0.64462691728344412     
          34   2.4155626547885084E-002
           2
           5 -0.31352138497156390     
          37   3.4161207860397294E-002
           5
           4  -9.9995020855630345E-003
          10  0.22169307783835562     
          20  0.21701254678883783     
          26  0.64462691737502364     
          36   2.4155625631938016E-002
           2
           7 -0.31352138507737698     
          38   3.4161208470391197E-002
           0
           0
           5
           2  -1.4141430008881175E-002
          12  0.31352138107812472     
          18 -0.30690208679064623     
          21 -0.45582006299264194     
          35   3.4161207877340227E-002
           5
           3   1.4141430010730063E-002
           9  0.31352138130206081     
          19 -0.30690208654495527     
          25  0.45582006302683492     
          33   3.4161207533878156E-002
 C_l1_s2
 fermionic
          40          40
           5
           4 -0.74672035213800469     
          10  0.32213301629620900     
          20 -0.32225399766864787     
          26   6.6959350599236223E-010
          36  -9.9994998134495233E-003
           2
          15 -0.45556490336426503     
          31   1.4141429764839158E-002
           5
           2  0.74672035213617205     
          12  0.32213301642733799     
          18 -0.32225399757987294     
          21  -6.7859391662681652E-010
          35  -9.9994998436273453E-003
           2
          16  0.45556490333552252     
          29  -1.4141429751030806E-002
           2
           7 -0.76315282758186920     
          38  0.44338621079243506     
           1
          24 -0.44779387292435985     
           1
          27 -0.44779387287343725     
           2
           6  0.76315282757903435     
          39 -0.44338621084829261     
           5
           2 -0.32213301672699740     
          12 -0.38157645089544445     
          18 -0.37648094680490490     
          21  0.36562214696484474     
          35 -0.22169313344541797     
           2
          16  0.53963051299261633     
          29  0.31352141204767858     
           5
           4 -0.32213301653761484     
          10  0.38157645126579776     
          20  0.37648094685009875     
          26  0.36562214701476653     
          36  0.22169313337053276     
           2
          15  0.53963051323411881     
          31  0.31352141192990129     
           5
           1  0.45556490337737049     
          11 -0.53963051340217993     
          17 -0.53242448697718636     
          22  0.25853388601296157     
          34 -0.31352140797901928     
           5
           3 -0.45556490335360633     
           9 -0.53963051368533199     
          19  0.53242448668820719     
          25 -0.25853388575510644     
          33 -0.31352140848940929     
           0
           0
           5
           4 -0.32225399748794314     
          10 -0.37648094744843302     
          20 -0.40819312345106606     
          26  -1.0534872209978475E-009
          36  0.21701252386249739     
           2
          15 -0.53242448714869173     
          31  0.30690205536134207     
           5
           2  0.32225399726585052     
          12 -0.37648094747616134     
          18 -0.40819312381280676     
          21   1.2343667283148857E-009
          35  0.21701252420521985     
           2
          16 -0.53242448740230008     
          29  0.30690205523668485     
           2
          15 -0.25853388595750265     
          31  0.45582006947601894     
           5
           4   6.8190538815596597E-010
          10 -0.36562214715286245     
          20  -8.1303039425389439E-010
          26  -1.1071287827398718E-007
          36  0.64462692223752360     
           2
           5 -0.44779387292972639     
          37 -0.78950351454043366     
           0
           5
           2  -7.0282848161409448E-010
          12 -0.36562214682607702     
          18  -1.0575711081700307E-009
          21   1.1154952849010830E-007
          35  0.64462692241800190     
           2
          16  0.25853388597438959     
          29 -0.45582006959577837     
           0
           2
           8 -0.44779387288372741     
          40 -0.78950351453686163     
           0
           5
           1   1.4141429780745637E-002
          11  0.31352141182766846     
          17 -0.30690205544818966     
          22  0.45582006975519057     
          34   3.4161054343211240E-002
           0
           5
           3  -1.4141429783024243E-002
           9  0.31352141161992036     
          19  0.30690205564611750     
          25 -0.45582006954385423     
          33   3.4161054680471328E-002
           5
           2   9.9994998677824971E-003
          12 -0.22169313334692561     
          18  0.21701252472724739     
          21 -0.64462692246014608     
          35  -2.4155507859309006E-002
           5
           4   9.9994998191852737E-003
          10  0.22169313299622712     
          20 -0.21701252436579099     
          26 -0.64462692234234531     
          36   2.4155509781913755E-002
           2
          15  0.31352140817048790     
          31   3.4161054310067170E-002
           2
          16  0.31352140794388705     
          29   3.4161053724585486E-002
           2
           7  0.44338621084369195     
          38  -4.8311135068867195E-002
           1
          27 -0.78950351454670509     
           1
          24 -0.78950351454751366     
           2
           6 -0.44338621080752971     
          39   4.8311135067163197E-002
 P
 sign
          40          40
           5
           1  -1.0000000000000042     
          11   3.7501545002090201E-016
          17  -5.3294926416632129E-016
          22  -3.4063164064385710E-016
          34  -3.7503675850448190E-016
           5
           2  -1.0000000000000040     
          12  -5.0544305151095975E-016
          18   1.6133594609289030E-016
          21   1.6361310179018941E-016
          35   3.8494296242719303E-016
           5
           3   1.0000000000000033     
           9  -2.7407603059907501E-016
          19  -2.2801061209603041E-016
          25  -1.4967078054378764E-016
          33  -6.5979105625866961E-017
           5
           4   1.0000000000000033     
          10   9.4635690408219231E-017
          20   5.3807961322144606E-016
          26   1.0804746564580208E-016
          36   4.6166460894678278E-017
           2
           5   1.0000000000000029     
          37   4.1752625662416776E-016
           2
           6   1.0000000000000044     
          39  -3.6515929169311789E-016
           2
           7  -1.0000000000000027     
          38  -3.4586049302287591E-016
           2
           8  -1.0000000000000053     
          40  -1.4940305936850251E-016
           5
           3  -2.6875092352488228E-016
           9   1.0000000000000044     
          19   4.5272198401751676E-017
          25  -9.3675067702747583E-017
          33   4.4560709289154232E-016
           5
           4   1.1422618262836323E-016
          10   1.0000000000000024     
          20  -1.2445997762940243E-016
          26   5.7245874707234634E-017
          36  -2.1857515797307769E-016
           5
           1   3.8662990576550328E-016
          11  -1.0000000000000022     
          17  -1.4869494922085269E-016
          22   3.9031278209478160E-018
          34   3.7058030255554542E-016
           5
           2  -4.7395550665983625E-016
          12  -1.0000000000000042     
          18   1.4477357276807853E-017
          21  -5.7679555576228836E-017
          35   4.9005938196344800E-017
           2
          13   1.0000000000000036     
          30  -1.7856809780836258E-016
           2
          14  -1.0000000000000038     
          32  -5.1748969692733127E-016
           2
          15   1.0000000000000038     
          31  -2.7159264420761886E-016
           2
          16  -1.0000000000000031     
          29  -3.8706017557732508E-017
           5
           1  -5.8604806574157548E-016
          11  -1.3857607962581871E-016
          17  -1.0000000000000049     
          22   1.5579952628023682E-016
          34  -9.3548095002122489E-017
           5
           2   2.1965247039463869E-016
          12  -1.7055348125090201E-017
          18  -1.0000000000000047     
          21  -1.5359131331898707E-016
          35  -2.6116137525580889E-016
           5
           3  -1.0255486811186311E-016
           9   3.0517125370472822E-017
          19   1.0000000000000040     
          25  -2.6731989663007594E-016
          33   3.6514358815548030E-016
           5
           4   4.8815210321910664E-016
          10  -1.6112023103246559E-016
          20   1.0000000000000040     
          26   4.4151237118036302E-016
          36  -6.7840776125538646E-017
           5
           2   1.9077295110781788E-016
          12  -7.3292066860020100E-017
          18  -1.7526196225242513E-016
          21  -1.0000000000000031     
          35   3.7426658994199613E-016
           5
           1  -3.5255855139352734E-016
          11  -4.1633363423443370E-017
          17   7.9838140122726711E-017
          22  -1.0000000000000049     
          34   1.0308594255992176E-015
           1
          23  -1.0000000000000047     
           1
          24  -1.0000000000000044     
           5
           3  -1.6314232091833359E-016
           9  -1.1188966420050406E-016
          19  -2.0340371121799752E-016
          25   1.0000000000000040     
          33   4.0852737859253807E-016
           5
           4   1.0421723248968964E-016
          10   1.5612511283791264E-017
          20   4.0636060380629849E-016
          26   1.0000000000000029     
          36   5.6248408708547970E-016
           1
          27   1.0000000000000042     
           1
          28   1.0000000000000042     
           2
          16   1.7455654977016621E-017
          29  -1.0000000000000027     
           2
          13  -1.3931997916438732E-016
          30   1.0000000000000038     
           2
          15  -2.9240932591934055E-016
          31   1.0000000000000029     
           2
          14  -4.5146178462296405E-016
          32  -1.0000000000000029     
           5
           3  -9.6316949814734155E-018
           9   2.5023386140965442E-016
          19   3.4823368716376171E-016
          25   3.9334854817774101E-016
          33   1.0000000000000024     
           5
           1  -3.5940254765011571E-016
          11   4.2544093248331194E-016
          17  -1.0682537504509469E-016
          22   1.0182826803983858E-015
          34  -1.0000000000000024     
           5
           2   4.1880204724063954E-016
          12   7.8929918156944723E-017
          18  -2.2054056944761448E-016
          21   3.5128150388530344E-016
          35  -1.0000000000000029     
           5
           4   6.5157118941469542E-017
          10  -2.0925101928970236E-016
          20  -8.6412450711063552E-017
          26   5.4253476711174642E-016
          36   1.0000000000000016     
           2
           5   4.9743195673634943E-016
          37   1.0000000000000020     
           2
           7  -2.3787395664331967E-016
          38  -1.0000000000000040     
           2
           6  -2.6487059073820873E-016
          39   1.0000000000000047     
           2
           8  -9.9746599868666408E-017
          40  -1.0000000000000049     
          39
 1
 none
           4           4
           1
           1   1.0000000000000000     
           1
           2   1.0000000000000000     
           1
           3   1.0000000000000000     
           1
           4   1.0000000000000000     
 2
 none
          16          16
           1
          11   1.0000000000000000     
           2
           2 -0.70710678118654779     
          14  0.70710678118654735     
           2
           3 -0.70710678118654757     
          12  0.70710678118654735     
           4
           1  0.50000000000000011     
           9  0.49100002699462941     
          10 -0.50884081350780108     
          16  0.49999999999999212     
           2
           2 -0.70710678118654735     
          14 -0.70710678118654779     
           1
           6   1.0000000000000000     
           4
           1  0.50000000000000022     
           9 -0.50884081350779753     
          10 -0.49100002699462181     
          16 -0.50000000000000311     
           2
           5 -0.70710678118654735     
          15 -0.70710678118654768     
           2
           3 -0.70710678118654735     
          12 -0.70710678118654757     
           4
           1 -0.50000000000000033     
           9 -0.50884081350779309     
          10 -0.49100002699463285     
          16  0.49999999999999706     
           1
           7   1.0000000000000000     
           2
           4 -0.70710678118654835     
          13 -0.70710678118654680     
           4
           1  0.50000000000000022     
           9 -0.49100002699462508     
          10  0.50884081350778976     
          16  0.50000000000000799     
           2
           5  0.70710678118654768     
          15 -0.70710678118654735     
           2
           4  0.70710678118654680     
          13 -0.70710678118654835     
           1
           8   1.0000000000000000     
 3
 none
          64          44
           6
           2  0.87832410993627896     
           5  0.33709458999999681     
          15  0.30525188112760543     
          22   8.0652613373298265E-002
          26  0.11817260121792542     
          40   1.7921459346580820E-002
           6
           1 -0.87832410993624188     
           6  0.18328219085547603     
          11 -0.41619600196859552     
          21  -6.8784698913006231E-002
          27  -5.5901267142853081E-002
          42  0.11372994308784404     
           6
           3 -0.87832410993627041     
          13  0.21547672663488826     
          19 -0.40047628371500227     
          25  -1.4568068890798386E-002
          37  -3.5058966692621624E-002
          41 -0.13910221655593613     
           6
           4  0.87832410993623011     
           7 -0.39616322429722839     
          20 -0.22330735154451833     
          24 -0.13019827074375909     
          28   2.1639308561154556E-002
          43  -5.8059771339836030E-002
           2
          12 -0.93718947387159945     
          31  0.34311911615594004     
           2
           9  0.93718947387221474     
          44  0.34311911615330348     
           6
           2 -0.32156762394501259     
           5  0.81262466977165038     
          15 -0.15815911848582387     
          22  0.22764786988529692     
          26  0.25022734426899801     
          40  0.28185564816867498     
           6
           1 -0.32156762394514166     
           6 -0.80646918725281724     
          11  0.18703104205799279     
          21  0.25532916380878573     
          27  -7.8528236817906188E-002
          42 -0.35002888026185858     
           2
          16 -0.93718947387191875     
          34  0.34311911615613688     
           6
           2  0.32156762394505017     
           5   7.7013554259423522E-002
          15 -0.82428276285644331     
          22 -0.18341023730730185     
          26 -0.35205699280064917     
          40  0.19051625011408824     
           2
          18  0.93718947387204610     
          23  0.34311911615584545     
           6
           3 -0.32156762394500416     
          13 -0.81868971681269598     
          19  0.12296466267720663     
          25   5.2664634451163234E-002
          37 -0.14582052925672248     
          41  0.41211975494338959     
           6
           3 -0.32156762394503374     
          13  0.34847429375629374     
          19  0.75095860556616334     
          25   2.1583707581255027E-002
          37  0.32450379674244823     
          41  0.29683549712294732     
           6
           4 -0.32156762394507343     
           7 -0.10684772007388590     
          20 -0.82094867403371641     
          24 -0.24420819534989996     
          28  -3.9349386730849825E-003
          43 -0.36636969917083739     
           2
          14  0.93718947387172435     
          29  0.34311911615642143     
           2
          17 -0.93718947387186191     
          39  0.34311911615485868     
           6
           1 -0.32156762394501537     
           6  0.40650899546019786     
          11  0.72119594930355169     
          21   9.5242342264262606E-002
          27  0.36343740591197499     
          42 -0.22961278516427469     
           2
          10  0.93718947387172236     
          38  0.34311911615584867     
           6
           4  0.32156762394511146     
           7  0.75766354766904631     
          20 -0.33364518461312448     
          24  0.41936676512841220     
          28 -0.11422291132307055     
          43  -7.0459390589591581E-002
           2
           8 -0.93718947387176688     
          36  0.34311911615623514     
           2
           9 -0.34311911615474866     
          44  0.87437894773882718     
           1
          32   1.0000000000000000     
           6
           1  0.11773072787125002     
           6  0.17099860129512451     
          11 -0.38830250701870239     
          21  0.72224921797466779     
          27  0.28663517801716254     
          42  -9.1850836061775964E-002
           2
          10  0.34311911615566770     
          38 -0.87437894774305158     
           2
          18 -0.34311911615489643     
          23  0.87437894774848035     
           6
           3 -0.11773072787126160     
          13 -0.20103545627700206     
          19  0.37363632575152972     
          25 -0.62656188002844160     
          37 -0.15022552235890377     
          41 -0.44395127789928729     
           1
          33   1.0000000000000000     
           2
          14  0.34311911615570634     
          29 -0.87437894774645208     
           6
           4  0.11773072787120527     
           7  0.36961232797968252     
          20  0.20834127197352831     
          24 -0.34226001452105137     
          28  0.63248517192769094     
          43 -0.30831935387374054     
           2
           8  0.34311911615565172     
          36  0.87437894774641167     
           2
          17  0.34311911615554369     
          39  0.87437894774112856     
           1