          39
          40
 FERMION
 C
           1
          16
           2
           2
   19.000000000000000        19.000000000000000     
           5
           1          11          20          24          35
           2
   19.000000000000000        20.000000000000000     
           5
           2          10          17          21          36
           2
   20.000000000000000        19.000000000000000     
           5
           3          12          19          26          33
           2
   20.000000000000000        20.000000000000000     
           5
           4           9          18          23          34
           2
   21.000000000000000        19.000000000000000     
           2
           5          40
           2
   18.000000000000000        19.000000000000000     
           2
           6          39
           2
   18.000000000000000        20.000000000000000     
           2
           7          37
           2
   21.000000000000000        20.000000000000000     
           2
           8          38
           2
   19.000000000000000        21.000000000000000     
           2
          13          29
           2
   20.000000000000000        21.000000000000000     
           2
          14          32
           2
   19.000000000000000        18.000000000000000     
           2
          15          30
           2
   20.000000000000000        18.000000000000000     
           2
          16          31
           2
   18.000000000000000        21.000000000000000     
           1
          22
           2
   18.000000000000000        18.000000000000000     
           1
          25
           2
   21.000000000000000        18.000000000000000     
           1
          27
           2
   21.000000000000000        21.000000000000000     
           1
          28
           4
 H
 bosonic
          40          40
         136
           1           1  -48.646860434750380     
           1          11   1.1219374318471864E-008
           1          20  0.36846637532569382     
           1          24   8.6726181791618728E-012
           1          35   1.0390697191553500E-009
           2           2  -48.646860434754416     
           2          10   1.0471081779428459E-008
           2          17 -0.36846637531266246     
           2          21  -2.3390178682802798E-011
           2          36  -1.0082543688838541E-009
           3           3  -48.646860434745705     
           3          12  -1.1301189317691751E-008
           3          19  0.36846637532627646     
           3          26   8.0180306838428805E-012
           3          33   1.0288729868079827E-009
           4           4  -48.646860434742187     
           4           9  -1.0552924534223962E-008
           4          18  0.36846637532498860     
           4          23  -4.2987835513486061E-013
           4          34  -9.9120001095798216E-010
           5           5  -47.889692206149896     
           5          40 -0.23481025324730354     
           6           6  -47.889692206133986     
           6          39  0.23481025322701399     
           7           7  -47.889692206127691     
           7          37 -0.23481025328419847     
           8           8  -47.889692206122888     
           8          38  0.23481025320241855     
           9           4  -1.0552914986305950E-008
           9           9  -47.889692205648686     
           9          18  -1.1112470943430708E-009
           9          23   1.2223127399124678E-008
           9          34 -0.23481025341782491     
          10           2   1.0471083555785299E-008
          10          10  -47.889692205628798     
          10          17  -1.0900311764316939E-009
          10          21  -1.2255515713377463E-008
          10          36  0.23481025341320705     
          11           1   1.1219373208248840E-008
          11          11  -47.889692205614701     
          11          20   1.2363887691435593E-009
          11          24   1.2352214362465475E-008
          11          35 -0.23481025341930994     
          12           3  -1.1301189317691751E-008
          12          12  -47.889692205600298     
          12          19  -1.2629763901372826E-009
          12          26   1.2321905273893208E-008
          12          33  0.23481025338776673     
          13          13  -47.889692205148080     
          13          29 -0.23481025358090668     
          14          14  -47.889692205123986     
          14          32 -0.23481025355850704     
          15          15  -47.889692205069196     
          15          30 -0.23481025356995389     
          16          16  -47.889692205067185     
          16          31 -0.23481025361462859     
          17           2 -0.36846637531266424     
          17          10  -1.0900347291453727E-009
          17          17  -47.806099456936735     
          17          21  -2.7522073509089751E-010
          17          36  -6.9247818590412180E-009
          18           4  0.36846637532499038     
          18           9  -1.1112466502538609E-009
          18          18  -47.806099456969932     
          18          23  -1.2852297004428692E-010
          18          34   6.5612462130104632E-009
          19           3  0.36846637532628179     
          19          12  -1.2629755019588629E-009
          19          19  -47.806099456971836     
          19          26  -2.0046009296947886E-010
          19          33  -6.2619598395485809E-009
          20           1  0.36846637532569204     
          20          11   1.2363940982140775E-009
          20          20  -47.806099456912406     
          20          24  -9.4085628177253966E-011
          20          35  -6.5607075327989151E-009
          21           2  -2.3390178682802798E-011
          21          10  -1.2255513048842204E-008
          21          17  -2.7521718237721871E-010
          21          21  -47.056439143783862     
          21          36  -3.5731346770262462E-009
          22          22  -47.056439143789667     
          23           4  -4.3121062276441080E-013
          23           9   1.2223127399124678E-008
          23          18  -1.2852030550902782E-010
          23          23  -47.056439143766056     
          23          34  -3.5423948219204249E-009
          24           1   8.6735063575815730E-012
          24          11   1.2352215250643894E-008
          24          20  -9.4084739998834266E-011
          24          24  -47.056439143770575     
          24          35  -3.5890330707388785E-009
          25          25  -47.056439143768898     
          26           3   8.0180306838428805E-012
          26          12   1.2321904385714788E-008
          26          19  -2.0046098114789856E-010
          26          26  -47.056439143784218     
          26          33   3.5571652290400380E-009
          27          27  -47.056439143771769     
          28          28  -47.056439143737691     
          29          13 -0.23481025358090712     
          29          29  -46.924737158382470     
          30          15 -0.23481025356996099     
          30          30  -46.924737158351675     
          31          16 -0.23481025361462837     
          31          31  -46.924737158302563     
          32          14 -0.23481025355851060     
          32          32  -46.924737158382953     
          33           3   1.0288747631648221E-009
          33          12  0.23481025338777139     
          33          19  -6.2619562868349021E-009
          33          26   3.5571634526831986E-009
          33          33  -46.924737157735748     
          34           4  -9.9120267549324126E-010
          34           9 -0.23481025341781958     
          34          18   6.5612457689212533E-009
          34          23  -3.5423965982772643E-009
          34          34  -46.924737157740815     
          35           1   1.0390701632445598E-009
          35          11 -0.23481025341931172     
          35          20  -6.5607030919068166E-009
          35          24  -3.5890348470957179E-009
          35          35  -46.924737157672126     
          36           2  -1.0082543688838541E-009
          36          10  0.23481025341320705     
          36          17  -6.9247854117548968E-009
          36          21  -3.5731257952420492E-009
          36          36  -46.924737157691837     
          37           7 -0.23481025328421268     
          37          37  -46.924737157066374     
          38           8  0.23481025320242210     
          38          38  -46.924737157099457     
          39           6  0.23481025322701043     
          39          39  -46.924737157032226     
          40           5 -0.23481025324730354     
          40          40  -46.924737157049194     
 C_l1_s1
 fermionic
          40          40
         106
           1           3 -0.74672035168177420     
           1          12  0.32213304260150638     
           1          19 -0.32225397173464415     
           1          26  -4.2419581736119483E-010
           1          33  -9.9995016683039131E-003
           2           4 -0.74672035168618189     
           2           9  0.32213304193528441     
           2          18 -0.32225397239073450     
           2          23  -4.0659577094093180E-010
           2          34   9.9995016480667123E-003
           3           5  0.45556490355874568     
           3          40   1.4141429968602293E-002
           4           8  0.45556490355304363     
           4          38  -1.4141429992942628E-002
           6           1  0.45556490356843404     
           6          11 -0.53963055541455296     
           6          20 -0.53242444290385549     
           6          24 -0.25853392979496403     
           6          35  0.31352138944992114     
           7           2  0.45556490356718482     
           7          10 -0.53963055433324614     
           7          17  0.53242444400530164     
           7          21  0.25853392960789412     
           7          36 -0.31352138947895114     
           9           8  0.53963055444825525     
           9          38  0.31352138743228292     
          10           4 -0.32213304187555547     
          10           9  0.38157639170072483     
          10          18  0.37648094550077627     
          10          23  0.36562217804802066     
          10          34 -0.22169308852515968     
          11           3 -0.32213304254127212     
          11          12  0.38157639014749212     
          11          19  0.37648094544193211     
          11          26  0.36562217812408437     
          11          33  0.22169308875230437     
          12           5  0.53963055554188566     
          12          40 -0.31352138682879271     
          13          14 -0.76315282708205245     
          13          32  0.44338621107871717     
          14          28  0.44779387324695519     
          15          16  0.76315282704967635     
          15          31 -0.44338621111421994     
          16          27 -0.44779387327586290     
          17           4  0.32225397246899651     
          17           9  0.37648094533489829     
          17          18  0.40819318195239279     
          17          23  -1.1568190017019475E-009
          17          34  0.21701254252894991     
          18           8 -0.53242444388983790     
          18          38  0.30690208028221111     
          19           5 -0.53242444277766643     
          19          40 -0.30690208093615085     
          20           3 -0.32225397180499887     
          20          12 -0.37648094525838399     
          20          19 -0.40819318348389128     
          20          26   5.4775103897064525E-010
          20          33  0.21701254230292910     
          21           4  -3.9504685633851011E-010
          21           9 -0.36562217820350973     
          21          18   7.2701827891208382E-010
          21          23   6.7279284698962272E-008
          21          34 -0.64462691808333683     
          22          13 -0.44779387326707110     
          22          29 -0.78950351376999406     
          23           8  0.25853392975268752     
          23          38 -0.45582006422610555     
          24           3   4.1207093987027932E-010
          24          12  0.36562217823779591     
          24          19  -2.0250048859971059E-010
          24          26  -6.7748054277672054E-008
          24          33 -0.64462691823113749     
          25          15  0.44779387328900244     
          25          30  0.78950351375385774     
          26           5  0.25853392990474383     
          26          40  0.45582006409598874     
          29          14  0.44338621109775705     
          29          32  -4.8311134764589724E-002
          30          16 -0.44338621112089383     
          30          31   4.8311134791407313E-002
          31          27 -0.78950351376867067     
          32          28  0.78950351377892269     
          33           5  0.31352138935903295     
          33          40  -3.4161177826724343E-002
          34           8 -0.31352138935115736     
          34          38  -3.4161177288321937E-002
          35           3  -9.9995016661471106E-003
          35          12 -0.22169308869242896     
          35          19  0.21701254251512705     
          35          26  0.64462691856867171     
          35          33  -2.4155603062914921E-002
          36           4   9.9995016640293324E-003
          36           9  0.22169308842020949     
          36          18 -0.21701254284804855     
          36          23 -0.64462691849045450     
          36          34  -2.4155603014113181E-002
          37           2   1.4141429962095109E-002
          37          10  0.31352138751158259     
          37          17  0.30690208021738008     
          37          21  0.45582006480734288     
          37          36   3.4161177850896729E-002
          39           1  -1.4141429961130131E-002
          39          11 -0.31352138689560893     
          39          20  0.30690208087162973     
          39          24  0.45582006454952090     
          39          35   3.4161178259817390E-002
 C_l1_s2
 fermionic
          40          40
         106
           1           2  0.74672035202653642     
           1          10 -0.32213302317957537     
           1          17 -0.32225399090207923     
           1          21  -4.2380261799923602E-010
           1          36   9.9995002946162564E-003
           2          13  0.45556490340957195     
           2          29   1.4141429836565245E-002
           3           4 -0.74672035202403675     
           3           9 -0.32213302311481673     
           3          18 -0.32225399096760632     
           3          23   4.1186245386404252E-010
           3          34  -9.9995003071364774E-003
           4          14 -0.45556490340861688     
           4          32  -1.4141429851195042E-002
           5           8  0.76315282747877855     
           5          38  0.44338621086624619     
           6           7 -0.76315282747108826     
           6          37  0.44338621087775559     
           7          22  0.44779387296899104     
           8          28  0.44779387296383799     
           9          14  0.53963052405087397     
           9          32 -0.31352140549136526     
          10          13  0.53963052416534396     
          10          29 -0.31352140544683693     
          11           2 -0.32213302251673237     
          11          10  0.38157643625750060     
          11          17 -0.37648094751650668     
          11          21  0.36562215469936571     
          11          36  0.22169312216576956     
          12           4 -0.32213302244457848     
          12           9 -0.38157643642579153     
          12          18  0.37648094754483707     
          12          23  0.36562215459108671     
          12          34  0.22169312198655938     
          15           1 -0.45556490341120853     
          15          11 -0.53963052305426940     
          15          20  0.53242447684875982     
          15          24  0.25853389650313341     
          15          35  0.31352140352170615     
          16           3 -0.45556490341399819     
          16          12  0.53963052293293090     
          16          19  0.53242447695712436     
          16          26 -0.25853389665697929     
          16          33  0.31352140361084080     
          17          13  0.53242447573260976     
          17          29  0.30690206193429059     
          18          14  0.53242447583071528     
          18          32  0.30690206187944574     
          19           4 -0.32225399164285640     
          19           9  0.37648094589396841     
          19          18 -0.40819313805151325     
          19          23  -7.6522621572649996E-011
          19          34  0.21701252921603531     
          20           2  0.32225399156458739     
          20          10  0.37648094587898140     
          20          17 -0.40819313823697684     
          20          21   5.4671059346311779E-010
          20          36 -0.21701252882245853     
          21          13  0.25853389653755104     
          21          29  0.45582006873990483     
          23          14 -0.25853389672846672     
          23          32 -0.45582006816924736     
          24           2   4.1449894905287721E-010
          24          10 -0.36562215455700242     
          24          17   1.2304390006878663E-009
          24          21  -6.7579455975685931E-008
          24          36  0.64462692129318722     
          25           6  0.44779387298374312     
          25          39 -0.78950351437411892     
          26           4   4.0567430664717463E-010
          26           9  0.36562215449524382     
          26          18  -8.5841703190148166E-010
          26          23  -6.7471151221631942E-008
          26          34  0.64462692161393087     
          27           5 -0.44779387298360485     
          27          40 -0.78950351436381627     
          30           1  -1.4141429818179618E-002
          30          11  0.31352140608823903     
          30          20  0.30690206129968967     
          30          24  0.45582006848374335     
          30          35  -3.4161083928750849E-002
          31           3  -1.4141429806479351E-002
          31          12 -0.31352140614492824     
          31          19  0.30690206123988234     
          31          26 -0.45582006804307773     
          31          33  -3.4161084336153252E-002
          33           4   9.9995002902808633E-003
          33           9 -0.22169312263384344     
          33          18 -0.21701252853183545     
          33          23 -0.64462692149031042     
          33          34   2.4155531589625884E-002
          34          14 -0.31352140361458503     
          34          32   3.4161084892809619E-002
          35           2  -9.9995002707341102E-003
          35          10 -0.22169312278782127     
          35          17 -0.21701252823295569     
          35          21  0.64462692109748776     
          35          36  -2.4155532133084856E-002
          36          13  0.31352140347013358     
          36          29  -3.4161084308871895E-002
          37          22  0.78950351436342459     
          38          28 -0.78950351436354249     
          39           7 -0.44338621088813535     
          39          37   4.8311134994879434E-002
          40           8 -0.44338621088673635     
          40          38  -4.8311134968733294E-002
 P
 sign
          40          40
         127
           1           1   1.0000000000000020     
           1          11   2.0816681711721685E-017
           1          24   4.8572257327350599E-017
           1          35  -1.3877787807814457E-016
           2           2  -1.0000000000000009     
           2          10  -1.1102230246251565E-016
           2          17  -1.3877787807814457E-016
           2          21   5.5511151231257827E-017
           2          36  -8.3266726846886741E-017
           3           3 -0.99999999999999978     
           3          12  -2.7755575615628914E-017
           3          19   1.1102230246251565E-016
           3          26   9.7144514654701197E-017
           3          33  -1.1102230246251565E-016
           4           4   1.0000000000000016     
           4           9  -2.2204460492503131E-016
           4          18  -2.4980018054066022E-016
           4          23   5.5511151231257827E-017
           4          34   6.9388939039072284E-018
           5           5   1.0000000000000013     
           5          40  -5.5511151231257827E-017
           6           6  -1.0000000000000004     
           6          39  -6.1062266354383610E-016
           7           7   1.0000000000000013     
           7          37  -1.6653345369377348E-016
           8           8  -1.0000000000000018     
           8          38   1.6653345369377348E-016
           9           4  -1.7347234759768071E-016
           9           9   1.0000000000000018     
           9          18   6.6613381477509392E-016
           9          23  -1.1102230246251565E-016
           9          34  -2.7755575615628914E-016
          10           2  -5.5511151231257827E-017
          10          10  -1.0000000000000000     
          10          17  -5.5511151231257827E-017
          10          21  -1.6653345369377348E-016
          10          36  -2.4980018054066022E-016
          11           1   9.7144514654701197E-017
          11          11   1.0000000000000031     
          11          20  -4.1633363423443370E-017
          11          24  -5.5511151231257827E-017
          11          35  -8.3266726846886741E-017
          12           3   8.3266726846886741E-017
          12          12  -1.0000000000000029     
          12          19  -5.5511151231257827E-017
          12          33  -5.8980598183211441E-017
          13          13   1.0000000000000020     
          13          29  -3.1225022567582528E-017
          14          14  -1.0000000000000016     
          14          32   1.6653345369377348E-016
          15          15  -1.0000000000000016     
          15          30   3.8857805861880479E-016
          16          16   1.0000000000000011     
          16          31  -3.9551695252271202E-016
          17           2  -1.6653345369377348E-016
          17          10  -1.1102230246251565E-016
          17          17  -1.0000000000000004     
          17          21  -8.3266726846886741E-017
          17          36  -2.8449465006019636E-016
          18           4  -2.2204460492503131E-016
          18           9   6.7307270867900115E-016
          18          18   1.0000000000000013     
          18          23   5.5511151231257827E-017
          18          34  -2.7755575615628914E-017
          19           3   5.5511151231257827E-017
          19          12   6.9388939039072284E-017
          19          19  -1.0000000000000016     
          19          26   2.7755575615628914E-017
          20          20   1.0000000000000018     
          20          24  -2.4980018054066022E-016
          20          35   5.5511151231257827E-017
          21          10  -1.1102230246251565E-016
          21          21  -1.0000000000000002     
          21          36  -5.5511151231257827E-017
          22          22  -1.0000000000000027     
          23           4   1.1102230246251565E-016
          23           9  -8.3266726846886741E-017
          23          18  -2.7755575615628914E-017
          23          23   1.0000000000000011     
          23          34  -3.3306690738754696E-016
          24           1   1.3183898417423734E-016
          24          11  -5.5511151231257827E-017
          24          20  -1.9428902930940239E-016
          24          24  0.99999999999999978     
          24          35  -2.2204460492503131E-016
          25          25   1.0000000000000009     
          26           3   1.3877787807814457E-016
          26          12   2.7755575615628914E-017
          26          19   2.7755575615628914E-017
          26          26  -1.0000000000000016     
          26          33  -5.5511151231257827E-017
          27          27  -1.0000000000000018     
          28          28   1.0000000000000020     
          29          13  -3.4694469519536142E-017
          29          29   1.0000000000000024     
          30          15   4.4408920985006262E-016
          30          30  -1.0000000000000002     
          31          16  -3.2959746043559335E-016
          31          31   1.0000000000000007     
          32          14   1.6653345369377348E-016
          32          32  -1.0000000000000031     
          33           3  -1.1102230246251565E-016
          33          12  -1.0755285551056204E-016
          33          19  -5.5511151231257827E-017
          33          33  -1.0000000000000013     
          34           4   7.6327832942979512E-017
          34           9  -1.9428902930940239E-016
          34          23  -3.3306690738754696E-016
          34          34   1.0000000000000016     
          35           1  -5.5511151231257827E-017
          35          11  -2.7755575615628914E-017
          35          20   8.3266726846886741E-017
          35          24  -2.2204460492503131E-016
          35          35   1.0000000000000011     
          36           2  -6.9388939039072284E-017
          36          10  -1.5265566588595902E-016
          36          17  -1.6653345369377348E-016
          36          21  -5.5511151231257827E-017
          36          36 -0.99999999999999933     
          37           7  -1.1102230246251565E-016
          37          37   1.0000000000000016     
          38           8   1.6653345369377348E-016
          38          38  -1.0000000000000013     
          39           6  -6.1062266354383610E-016
          39          39 -0.99999999999999978     
          40           5  -5.5511151231257827E-017
          40          40   1.0000000000000016     
          39
 1
 none
           4           4
           4
           1           1   1.0000000000000000     
           2           2   1.0000000000000000     
           3           3   1.0000000000000000     
           4           4   1.0000000000000000     
 2
 none
          16          16
          36
           1           9   1.0000000000000000     
           2           4 -0.70710678118654791     
           2          14  0.70710678118654713     
           3           5 -0.70710678118654802     
           3          15  0.70710678118654702     
           4           1  0.50000000000000000     
           4           6   7.9354417600083993E-002
           4          11 -0.70263993368393995     
           4          16  0.49999999999998018     
           5           4 -0.70710678118654713     
           5          14 -0.70710678118654791     
           6           8   1.0000000000000000     
           7           1  0.49999999999999989     
           7           6 -0.70263993368392397     
           7          11  -7.9354417600071323E-002
           7          16 -0.50000000000000466     
           8           3 -0.70710678118654791     
           8          12 -0.70710678118654702     
           9           5 -0.70710678118654702     
           9          15 -0.70710678118654802     
          10           1 -0.50000000000000000     
          10           6 -0.70263993368392708     
          10          11  -7.9354417600099814E-002
          10          16  0.49999999999999545     
          11           7   1.0000000000000000     
          12           2 -0.70710678118654779     
          12          13 -0.70710678118654735     
          13           1  0.50000000000000044     
          13           6  -7.9354417600087171E-002
          13          11  0.70263993368391098     
          13          16  0.50000000000001998     
          14           3  0.70710678118654702     
          14          12 -0.70710678118654791     
          15           2  0.70710678118654735     
          15          13 -0.70710678118654779     
          16          10   1.0000000000000000     
 3
 none
          64          44
         268
           1           4  0.87832410993626853     
           1          15 -0.40895519008567244     
           1          20  0.19891487134246982     
           1          27   2.2829855769673339E-002
           1          41 -0.11380381109896903     
           1          43   8.5546926845151583E-002
           2           2  0.32156762394508259     
           2           5 -0.82227970506603554     
           2          17  -9.6068971672275294E-002
           2          21 -0.30186168733648372     
           2          32 -0.13098876657110808     
           2          39 -0.29257707982604486     
           3           3  0.32156762394501559     
           3          12 -0.82735025108188254     
           3          19   2.9406168007371641E-002
           3          24 -0.28780474816374402     
           3          29  0.15738411545926723     
           3          38 -0.29373210587540527     
           4          18 -0.93718947387189921     
           4          36  0.34311911615561752     
           5          14 -0.93718947387184215     
           5          35  0.34311911615553109     
           6           4  -9.3424533438192549E-003
           6          15 -0.17941006901615134     
           6          20 -0.29187947729843999     
           6          27  0.22729263625351387     
           6          41  0.56835728161868393     
           6          43  0.62479619940771058     
           7          13  0.34311911615477336     